<?xml version="1.0" encoding="UTF-8"?>

<!-- generated on 2025-11-08 20:18:48 by Eclipse SUMO sumo Version 1.24.0
<sumoConfiguration xmlns:xsi="http://www.w3.org/2001/XMLSchema-instance" xsi:noNamespaceSchemaLocation="http://sumo.dlr.de/xsd/sumoConfiguration.xsd">

    <input>
        <net-file value="osm.net.xml.gz"/>
        <route-files value="osm.passenger.trips.xml"/>
        <additional-files value="osm.poly.xml.gz,output.add.xml"/>
    </input>

    <output>
        <fcd-output value="sumoTrace.xml"/>
        <tripinfo-output value="tripinfos.xml"/>
        <statistic-output value="stats.xml"/>
    </output>

    <processing>
        <ignore-route-errors value="true"/>
        <tls.actuated.jam-threshold value="30"/>
    </processing>

    <routing>
        <device.rerouting.adaptation-steps value="18"/>
        <device.rerouting.adaptation-interval value="10"/>
    </routing>

    <report>
        <verbose value="true"/>
        <duration-log.statistics value="true"/>
        <no-step-log value="true"/>
    </report>

    <gui_only>
        <gui-settings-file value="osm.view.xml"/>
    </gui_only>

</sumoConfiguration>
-->

<meandata xmlns:xsi="http://www.w3.org/2001/XMLSchema-instance" xsi:noNamespaceSchemaLocation="http://sumo.dlr.de/xsd/meandata_file.xsd">
    <interval begin="0.00" end="3600.00" id="wizard_example">
        <edge id="-1098998578" sampledSeconds="0.00" departed="0" arrived="0" entered="0" left="0" laneChangedFrom="0" laneChangedTo="0"/>
        <edge id="-1098998580" sampledSeconds="0.00" departed="0" arrived="0" entered="0" left="0" laneChangedFrom="0" laneChangedTo="0"/>
        <edge id="-1098998581#0" sampledSeconds="0.00" departed="0" arrived="0" entered="0" left="0" laneChangedFrom="0" laneChangedTo="0"/>
        <edge id="-1098998581#1" sampledSeconds="0.00" departed="0" arrived="0" entered="0" left="0" laneChangedFrom="0" laneChangedTo="0"/>
        <edge id="-1098998582" sampledSeconds="0.00" departed="0" arrived="0" entered="0" left="0" laneChangedFrom="0" laneChangedTo="0"/>
        <edge id="-1117351894" sampledSeconds="0.00" departed="0" arrived="0" entered="0" left="0" laneChangedFrom="0" laneChangedTo="0"/>
        <edge id="-1294818340#0" sampledSeconds="41.38" traveltime="1.90" overlapTraveltime="2.96" density="1.17" laneDensity="1.17" occupancy="0.41" waitingTime="0.00" timeLoss="13.02" speed="5.01" speedRelative="0.60" departed="3" arrived="0" entered="12" left="15" laneChangedFrom="0" laneChangedTo="0"/>
        <edge id="-1294818340#1" sampledSeconds="135.44" traveltime="8.43" overlapTraveltime="9.07" density="0.58" laneDensity="0.58" occupancy="0.27" waitingTime="0.00" timeLoss="12.37" speed="7.65" speedRelative="0.92" departed="1" arrived="3" entered="14" left="12" laneChangedFrom="0" laneChangedTo="0"/>
        <edge id="-1294818341" sampledSeconds="100.88" traveltime="6.15" overlapTraveltime="6.91" density="0.65" laneDensity="0.65" occupancy="0.29" waitingTime="0.00" timeLoss="16.65" speed="6.97" speedRelative="0.84" departed="3" arrived="2" entered="12" left="13" laneChangedFrom="0" laneChangedTo="0"/>
        <edge id="-1294818342#0" sampledSeconds="129.03" traveltime="20.63" overlapTraveltime="21.62" density="0.24" laneDensity="0.24" occupancy="0.12" waitingTime="0.00" timeLoss="13.24" speed="7.12" speedRelative="0.85" departed="1" arrived="0" entered="5" left="6" laneChangedFrom="0" laneChangedTo="0"/>
        <edge id="-1294818342#2" sampledSeconds="21.80" traveltime="3.49" overlapTraveltime="4.20" density="0.31" laneDensity="0.31" occupancy="0.13" waitingTime="0.00" timeLoss="5.80" speed="5.86" speedRelative="0.70" departed="3" arrived="1" entered="3" left="5" laneChangedFrom="0" laneChangedTo="0"/>
        <edge id="-1294818342#3" sampledSeconds="72.03" traveltime="7.45" overlapTraveltime="8.45" density="0.41" laneDensity="0.41" occupancy="0.19" waitingTime="0.00" timeLoss="14.76" speed="6.33" speedRelative="0.76" departed="3" arrived="3" entered="6" left="6" laneChangedFrom="0" laneChangedTo="0"/>
        <edge id="-1294818343#0" sampledSeconds="78.85" traveltime="8.09" overlapTraveltime="8.84" density="0.36" laneDensity="0.36" occupancy="0.17" waitingTime="0.00" timeLoss="8.52" speed="7.37" speedRelative="0.88" departed="1" arrived="0" entered="8" left="9" laneChangedFrom="0" laneChangedTo="0"/>
        <edge id="-1294818343#1" sampledSeconds="22.80" traveltime="1.66" overlapTraveltime="2.46" density="0.71" laneDensity="0.71" occupancy="0.26" waitingTime="0.00" timeLoss="7.65" speed="5.64" speedRelative="0.68" departed="4" arrived="3" entered="7" left="8" laneChangedFrom="0" laneChangedTo="0"/>
        <edge id="-1294818344" sampledSeconds="41.05" traveltime="9.71" overlapTraveltime="10.39" density="0.16" laneDensity="0.16" occupancy="0.08" waitingTime="0.00" timeLoss="3.27" speed="7.35" speedRelative="0.88" departed="0" arrived="2" entered="4" left="2" laneChangedFrom="0" laneChangedTo="0"/>
        <edge id="-1294818345#0" sampledSeconds="29.23" traveltime="3.45" overlapTraveltime="4.18" density="0.34" laneDensity="0.34" occupancy="0.14" waitingTime="0.00" timeLoss="2.59" speed="6.95" speedRelative="0.83" departed="0" arrived="1" entered="7" left="6" laneChangedFrom="0" laneChangedTo="0"/>
        <edge id="-1294818345#1" sampledSeconds="8.04" traveltime="0.17" overlapTraveltime="1.00" density="2.63" laneDensity="2.63" occupancy="0.19" waitingTime="0.00" timeLoss="1.94" speed="5.82" speedRelative="0.70" departed="0" arrived="1" entered="8" left="7" laneChangedFrom="0" laneChangedTo="0"/>
        <edge id="-1294818346#0" sampledSeconds="5.39" traveltime="0.24" overlapTraveltime="1.43" density="0.99" laneDensity="0.99" occupancy="0.12" waitingTime="0.00" timeLoss="1.48" speed="4.55" speedRelative="0.55" departed="1" arrived="0" entered="3" left="4" laneChangedFrom="0" laneChangedTo="0"/>
        <edge id="-1294818346#1" sampledSeconds="54.86" traveltime="7.71" overlapTraveltime="8.46" density="0.32" laneDensity="0.32" occupancy="0.15" waitingTime="0.00" timeLoss="9.09" speed="6.30" speedRelative="0.76" departed="3" arrived="4" entered="4" left="3" laneChangedFrom="0" laneChangedTo="0"/>
        <edge id="-1294818346#2" sampledSeconds="15.00" traveltime="1.80" overlapTraveltime="2.55" density="0.35" laneDensity="0.35" occupancy="0.12" waitingTime="0.00" timeLoss="1.61" speed="6.62" speedRelative="0.79" departed="0" arrived="2" entered="6" left="4" laneChangedFrom="0" laneChangedTo="0"/>
        <edge id="-1294818347" sampledSeconds="0.00" departed="0" arrived="0" entered="0" left="0" laneChangedFrom="0" laneChangedTo="0"/>
        <edge id="-1294818348" sampledSeconds="295.38" traveltime="13.28" overlapTraveltime="14.23" density="0.84" laneDensity="0.84" occupancy="0.40" waitingTime="0.00" timeLoss="36.56" speed="7.23" speedRelative="0.87" departed="4" arrived="1" entered="17" left="20" laneChangedFrom="0" laneChangedTo="0"/>
        <edge id="-1294818349#0" sampledSeconds="104.30" traveltime="1.82" overlapTraveltime="2.61" density="2.38" laneDensity="2.38" occupancy="0.86" waitingTime="0.00" timeLoss="18.58" speed="6.58" speedRelative="0.79" departed="0" arrived="0" entered="40" left="40" laneChangedFrom="0" laneChangedTo="0"/>
        <edge id="-1294818349#1" sampledSeconds="249.21" traveltime="5.25" overlapTraveltime="5.95" density="1.74" laneDensity="1.74" occupancy="0.77" waitingTime="0.00" timeLoss="24.15" speed="7.52" speedRelative="0.90" departed="1" arrived="0" entered="41" left="42" laneChangedFrom="0" laneChangedTo="0"/>
        <edge id="-1294818349#2" sampledSeconds="250.47" traveltime="4.90" overlapTraveltime="5.58" density="1.85" laneDensity="1.85" occupancy="0.81" waitingTime="0.00" timeLoss="22.73" speed="7.62" speedRelative="0.92" departed="0" arrived="2" entered="45" left="43" laneChangedFrom="0" laneChangedTo="0"/>
        <edge id="-1294818350#0" sampledSeconds="60.68" traveltime="6.12" overlapTraveltime="7.09" density="0.41" laneDensity="0.41" occupancy="0.19" waitingTime="0.00" timeLoss="12.71" speed="6.46" speedRelative="0.77" departed="3" arrived="1" entered="6" left="8" laneChangedFrom="0" laneChangedTo="0"/>
        <edge id="-1294818350#1" sampledSeconds="130.80" traveltime="10.09" overlapTraveltime="11.04" density="0.52" laneDensity="0.52" occupancy="0.24" waitingTime="0.00" timeLoss="19.34" speed="6.77" speedRelative="0.81" departed="2" arrived="2" entered="10" left="10" laneChangedFrom="0" laneChangedTo="0"/>
        <edge id="-1294818351" sampledSeconds="310.08" traveltime="9.61" overlapTraveltime="10.40" density="1.21" laneDensity="1.21" occupancy="0.57" waitingTime="2.00" timeLoss="37.79" speed="7.33" speedRelative="0.88" departed="2" arrived="2" entered="28" left="28" laneChangedFrom="0" laneChangedTo="0"/>
        <edge id="-1294818353" sampledSeconds="217.00" traveltime="1.62" overlapTraveltime="2.30" density="4.26" laneDensity="4.26" occupancy="1.56" waitingTime="0.00" timeLoss="32.61" speed="8.34" speedRelative="0.75" departed="1" arrived="1" entered="94" left="94" laneChangedFrom="0" laneChangedTo="0"/>
        <edge id="-1294818356#0" sampledSeconds="295.07" traveltime="18.87" overlapTraveltime="19.80" density="0.60" laneDensity="0.60" occupancy="0.29" waitingTime="2.00" timeLoss="35.93" speed="7.17" speedRelative="0.86" departed="2" arrived="2" entered="13" left="13" laneChangedFrom="0" laneChangedTo="0"/>
        <edge id="-1294818356#1" sampledSeconds="23.32" traveltime="1.71" overlapTraveltime="2.34" density="0.55" laneDensity="0.55" occupancy="0.20" waitingTime="0.00" timeLoss="3.01" speed="7.14" speedRelative="0.86" departed="10" arrived="0" entered="3" left="13" laneChangedFrom="0" laneChangedTo="0"/>
        <edge id="-1294818357#1" sampledSeconds="227.70" traveltime="6.01" overlapTraveltime="6.72" density="1.42" laneDensity="1.42" occupancy="0.64" waitingTime="0.00" timeLoss="34.64" speed="7.35" speedRelative="0.88" departed="1" arrived="1" entered="33" left="33" laneChangedFrom="0" laneChangedTo="0"/>
        <edge id="-1294818357#2" sampledSeconds="117.52" traveltime="4.75" overlapTraveltime="5.39" density="0.90" laneDensity="0.90" occupancy="0.40" waitingTime="0.00" timeLoss="12.97" speed="7.67" speedRelative="0.92" departed="1" arrived="2" entered="21" left="20" laneChangedFrom="0" laneChangedTo="0"/>
        <edge id="-1294818358#0" sampledSeconds="77.50" traveltime="2.18" overlapTraveltime="2.91" density="1.45" laneDensity="1.45" occupancy="0.55" waitingTime="0.00" timeLoss="11.68" speed="6.80" speedRelative="0.82" departed="0" arrived="3" entered="27" left="24" laneChangedFrom="0" laneChangedTo="0"/>
        <edge id="-1294818358#1" sampledSeconds="368.81" traveltime="10.82" overlapTraveltime="11.58" density="1.33" laneDensity="1.33" occupancy="0.62" waitingTime="0.00" timeLoss="43.41" speed="7.10" speedRelative="0.85" departed="2" arrived="3" entered="30" left="29" laneChangedFrom="0" laneChangedTo="0"/>
        <edge id="-1309210016" sampledSeconds="287.38" traveltime="2.46" overlapTraveltime="3.11" density="4.23" laneDensity="4.23" occupancy="1.68" waitingTime="0.00" timeLoss="25.81" speed="7.67" speedRelative="0.92" departed="1" arrived="3" entered="92" left="90" laneChangedFrom="0" laneChangedTo="0"/>
        <edge id="-1352270016" sampledSeconds="0.00" departed="0" arrived="0" entered="0" left="0" laneChangedFrom="0" laneChangedTo="0"/>
        <edge id="-1356343632" sampledSeconds="63.64" traveltime="7.41" overlapTraveltime="8.04" density="0.30" laneDensity="0.30" occupancy="0.14" waitingTime="0.00" timeLoss="6.16" speed="7.84" speedRelative="0.94" departed="1" arrived="1" entered="7" left="7" laneChangedFrom="0" laneChangedTo="0"/>
        <edge id="-1356467938" sampledSeconds="395.84" traveltime="12.91" overlapTraveltime="13.75" density="1.17" laneDensity="1.17" occupancy="0.55" waitingTime="5.00" timeLoss="56.18" speed="7.22" speedRelative="0.87" departed="4" arrived="0" entered="25" left="29" laneChangedFrom="0" laneChangedTo="0"/>
        <edge id="-1356467939" sampledSeconds="75.64" traveltime="14.39" overlapTraveltime="15.13" density="0.21" laneDensity="0.21" occupancy="0.10" waitingTime="0.00" timeLoss="8.54" speed="6.96" speedRelative="0.84" departed="0" arrived="1" entered="5" left="4" laneChangedFrom="0" laneChangedTo="0"/>
        <edge id="-1363295595" sampledSeconds="0.00" departed="0" arrived="0" entered="0" left="0" laneChangedFrom="0" laneChangedTo="0"/>
        <edge id="-1363299425#0" sampledSeconds="0.00" departed="0" arrived="0" entered="0" left="0" laneChangedFrom="0" laneChangedTo="0"/>
        <edge id="-1363299425#1" sampledSeconds="0.00" departed="0" arrived="0" entered="0" left="0" laneChangedFrom="0" laneChangedTo="0"/>
        <edge id="-1363299425#2" sampledSeconds="0.00" departed="0" arrived="0" entered="0" left="0" laneChangedFrom="0" laneChangedTo="0"/>
        <edge id="-136473724" sampledSeconds="79.03" traveltime="5.49" overlapTraveltime="6.25" density="0.56" laneDensity="0.56" occupancy="0.25" waitingTime="0.00" timeLoss="11.90" speed="7.03" speedRelative="0.84" departed="2" arrived="2" entered="11" left="11" laneChangedFrom="0" laneChangedTo="0"/>
        <edge id="-136484682" sampledSeconds="0.00" departed="0" arrived="0" entered="0" left="0" laneChangedFrom="0" laneChangedTo="0"/>
        <edge id="-136484722" sampledSeconds="0.00" departed="0" arrived="0" entered="0" left="0" laneChangedFrom="0" laneChangedTo="0"/>
        <edge id="-136486216" sampledSeconds="0.00" departed="0" arrived="0" entered="0" left="0" laneChangedFrom="0" laneChangedTo="0"/>
        <edge id="-136489118" sampledSeconds="0.00" departed="0" arrived="0" entered="0" left="0" laneChangedFrom="0" laneChangedTo="0"/>
        <edge id="-136489164#0" sampledSeconds="0.00" departed="0" arrived="0" entered="0" left="0" laneChangedFrom="0" laneChangedTo="0"/>
        <edge id="-136489164#1" sampledSeconds="0.00" departed="0" arrived="0" entered="0" left="0" laneChangedFrom="0" laneChangedTo="0"/>
        <edge id="-136809770" sampledSeconds="0.00" departed="0" arrived="0" entered="0" left="0" laneChangedFrom="0" laneChangedTo="0"/>
        <edge id="-136813314" sampledSeconds="0.00" departed="0" arrived="0" entered="0" left="0" laneChangedFrom="0" laneChangedTo="0"/>
        <edge id="-136813434" sampledSeconds="0.00" departed="0" arrived="0" entered="0" left="0" laneChangedFrom="0" laneChangedTo="0"/>
        <edge id="-136813435" sampledSeconds="0.00" departed="0" arrived="0" entered="0" left="0" laneChangedFrom="0" laneChangedTo="0"/>
        <edge id="-136813438" sampledSeconds="0.00" departed="0" arrived="0" entered="0" left="0" laneChangedFrom="0" laneChangedTo="0"/>
        <edge id="-136813439#0" sampledSeconds="0.00" departed="0" arrived="0" entered="0" left="0" laneChangedFrom="0" laneChangedTo="0"/>
        <edge id="-136813439#1" sampledSeconds="0.00" departed="0" arrived="0" entered="0" left="0" laneChangedFrom="0" laneChangedTo="0"/>
        <edge id="-136813440#0" sampledSeconds="0.00" departed="0" arrived="0" entered="0" left="0" laneChangedFrom="0" laneChangedTo="0"/>
        <edge id="-136813440#1" sampledSeconds="0.00" departed="0" arrived="0" entered="0" left="0" laneChangedFrom="0" laneChangedTo="0"/>
        <edge id="-136820740" sampledSeconds="0.00" departed="0" arrived="0" entered="0" left="0" laneChangedFrom="0" laneChangedTo="0"/>
        <edge id="-136964838#0" sampledSeconds="0.00" departed="0" arrived="0" entered="0" left="0" laneChangedFrom="0" laneChangedTo="0"/>
        <edge id="-136964838#1" sampledSeconds="0.00" departed="0" arrived="0" entered="0" left="0" laneChangedFrom="0" laneChangedTo="0"/>
        <edge id="-136964838#2" sampledSeconds="0.00" departed="0" arrived="0" entered="0" left="0" laneChangedFrom="0" laneChangedTo="0"/>
        <edge id="-137188785#0" sampledSeconds="0.00" departed="0" arrived="0" entered="0" left="0" laneChangedFrom="0" laneChangedTo="0"/>
        <edge id="-137188785#1" sampledSeconds="0.00" departed="0" arrived="0" entered="0" left="0" laneChangedFrom="0" laneChangedTo="0"/>
        <edge id="-137191882" sampledSeconds="397.94" traveltime="5.46" overlapTraveltime="5.96" density="1.98" laneDensity="1.98" occupancy="0.91" waitingTime="0.00" timeLoss="33.63" speed="10.22" speedRelative="0.92" departed="2" arrived="2" entered="65" left="65" laneChangedFrom="0" laneChangedTo="0"/>
        <edge id="-137211063#0" sampledSeconds="0.00" departed="0" arrived="0" entered="0" left="0" laneChangedFrom="0" laneChangedTo="0"/>
        <edge id="-137211063#1" sampledSeconds="0.00" departed="0" arrived="0" entered="0" left="0" laneChangedFrom="0" laneChangedTo="0"/>
        <edge id="-137218785" sampledSeconds="0.00" departed="0" arrived="0" entered="0" left="0" laneChangedFrom="0" laneChangedTo="0"/>
        <edge id="-137306770#0" sampledSeconds="0.00" departed="0" arrived="0" entered="0" left="0" laneChangedFrom="0" laneChangedTo="0"/>
        <edge id="-137306770#1" sampledSeconds="0.00" departed="0" arrived="0" entered="0" left="0" laneChangedFrom="0" laneChangedTo="0"/>
        <edge id="-137306771#0" sampledSeconds="0.00" departed="0" arrived="0" entered="0" left="0" laneChangedFrom="0" laneChangedTo="0"/>
        <edge id="-137306771#1" sampledSeconds="0.00" departed="0" arrived="0" entered="0" left="0" laneChangedFrom="0" laneChangedTo="0"/>
        <edge id="-137306771#2" sampledSeconds="0.00" departed="0" arrived="0" entered="0" left="0" laneChangedFrom="0" laneChangedTo="0"/>
        <edge id="-137493465#0" sampledSeconds="0.00" departed="0" arrived="0" entered="0" left="0" laneChangedFrom="0" laneChangedTo="0"/>
        <edge id="-137493465#1" sampledSeconds="0.00" departed="0" arrived="0" entered="0" left="0" laneChangedFrom="0" laneChangedTo="0"/>
        <edge id="-137493647" sampledSeconds="0.00" departed="0" arrived="0" entered="0" left="0" laneChangedFrom="0" laneChangedTo="0"/>
        <edge id="-137626559#0" sampledSeconds="0.00" departed="0" arrived="0" entered="0" left="0" laneChangedFrom="0" laneChangedTo="0"/>
        <edge id="-137626559#1" sampledSeconds="0.00" departed="0" arrived="0" entered="0" left="0" laneChangedFrom="0" laneChangedTo="0"/>
        <edge id="-137626559#2" sampledSeconds="0.00" departed="0" arrived="0" entered="0" left="0" laneChangedFrom="0" laneChangedTo="0"/>
        <edge id="-137626559#3" sampledSeconds="0.00" departed="0" arrived="0" entered="0" left="0" laneChangedFrom="0" laneChangedTo="0"/>
        <edge id="-137626858#0" sampledSeconds="0.00" departed="0" arrived="0" entered="0" left="0" laneChangedFrom="0" laneChangedTo="0"/>
        <edge id="-137626858#1" sampledSeconds="0.00" departed="0" arrived="0" entered="0" left="0" laneChangedFrom="0" laneChangedTo="0"/>
        <edge id="-137626858#2" sampledSeconds="0.00" departed="0" arrived="0" entered="0" left="0" laneChangedFrom="0" laneChangedTo="0"/>
        <edge id="-137626858#3" sampledSeconds="0.00" departed="0" arrived="0" entered="0" left="0" laneChangedFrom="0" laneChangedTo="0"/>
        <edge id="-137626858#4" sampledSeconds="0.00" departed="0" arrived="0" entered="0" left="0" laneChangedFrom="0" laneChangedTo="0"/>
        <edge id="-137626859#0" sampledSeconds="0.00" departed="0" arrived="0" entered="0" left="0" laneChangedFrom="0" laneChangedTo="0"/>
        <edge id="-137626859#1" sampledSeconds="0.00" departed="0" arrived="0" entered="0" left="0" laneChangedFrom="0" laneChangedTo="0"/>
        <edge id="-137626860" sampledSeconds="0.00" departed="0" arrived="0" entered="0" left="0" laneChangedFrom="0" laneChangedTo="0"/>
        <edge id="-137626861" sampledSeconds="0.00" departed="0" arrived="0" entered="0" left="0" laneChangedFrom="0" laneChangedTo="0"/>
        <edge id="-137804834#0" sampledSeconds="0.00" departed="0" arrived="0" entered="0" left="0" laneChangedFrom="0" laneChangedTo="0"/>
        <edge id="-137804834#1" sampledSeconds="0.00" departed="0" arrived="0" entered="0" left="0" laneChangedFrom="0" laneChangedTo="0"/>
        <edge id="-137822838#0" sampledSeconds="0.00" departed="0" arrived="0" entered="0" left="0" laneChangedFrom="0" laneChangedTo="0"/>
        <edge id="-137822838#1" sampledSeconds="0.00" departed="0" arrived="0" entered="0" left="0" laneChangedFrom="0" laneChangedTo="0"/>
        <edge id="-137823548" sampledSeconds="0.00" departed="0" arrived="0" entered="0" left="0" laneChangedFrom="0" laneChangedTo="0"/>
        <edge id="-137823551" sampledSeconds="0.00" departed="0" arrived="0" entered="0" left="0" laneChangedFrom="0" laneChangedTo="0"/>
        <edge id="-137823813" sampledSeconds="0.00" departed="0" arrived="0" entered="0" left="0" laneChangedFrom="0" laneChangedTo="0"/>
        <edge id="-137823989#0" sampledSeconds="0.00" departed="0" arrived="0" entered="0" left="0" laneChangedFrom="0" laneChangedTo="0"/>
        <edge id="-137823989#1" sampledSeconds="0.00" departed="0" arrived="0" entered="0" left="0" laneChangedFrom="0" laneChangedTo="0"/>
        <edge id="-137824393" sampledSeconds="0.00" departed="0" arrived="0" entered="0" left="0" laneChangedFrom="0" laneChangedTo="0"/>
        <edge id="-137824488" sampledSeconds="0.00" departed="0" arrived="0" entered="0" left="0" laneChangedFrom="0" laneChangedTo="0"/>
        <edge id="-137825151#0" sampledSeconds="0.00" departed="0" arrived="0" entered="0" left="0" laneChangedFrom="0" laneChangedTo="0"/>
        <edge id="-137825151#1" sampledSeconds="0.00" departed="0" arrived="0" entered="0" left="0" laneChangedFrom="0" laneChangedTo="0"/>
        <edge id="-137825151#2" sampledSeconds="0.00" departed="0" arrived="0" entered="0" left="0" laneChangedFrom="0" laneChangedTo="0"/>
        <edge id="-137825152#0" sampledSeconds="0.00" departed="0" arrived="0" entered="0" left="0" laneChangedFrom="0" laneChangedTo="0"/>
        <edge id="-137825152#1" sampledSeconds="0.00" departed="0" arrived="0" entered="0" left="0" laneChangedFrom="0" laneChangedTo="0"/>
        <edge id="-137825152#2" sampledSeconds="0.00" departed="0" arrived="0" entered="0" left="0" laneChangedFrom="0" laneChangedTo="0"/>
        <edge id="-137825823" sampledSeconds="0.00" departed="0" arrived="0" entered="0" left="0" laneChangedFrom="0" laneChangedTo="0"/>
        <edge id="-137826638" sampledSeconds="0.00" departed="0" arrived="0" entered="0" left="0" laneChangedFrom="0" laneChangedTo="0"/>
        <edge id="-137826735" sampledSeconds="0.00" departed="0" arrived="0" entered="0" left="0" laneChangedFrom="0" laneChangedTo="0"/>
        <edge id="-137827001" sampledSeconds="0.00" departed="0" arrived="0" entered="0" left="0" laneChangedFrom="0" laneChangedTo="0"/>
        <edge id="-137827002" sampledSeconds="0.00" departed="0" arrived="0" entered="0" left="0" laneChangedFrom="0" laneChangedTo="0"/>
        <edge id="-137827003" sampledSeconds="0.00" departed="0" arrived="0" entered="0" left="0" laneChangedFrom="0" laneChangedTo="0"/>
        <edge id="-137827051" sampledSeconds="0.00" departed="0" arrived="0" entered="0" left="0" laneChangedFrom="0" laneChangedTo="0"/>
        <edge id="-137827175" sampledSeconds="0.00" departed="0" arrived="0" entered="0" left="0" laneChangedFrom="0" laneChangedTo="0"/>
        <edge id="-137827260" sampledSeconds="0.00" departed="0" arrived="0" entered="0" left="0" laneChangedFrom="0" laneChangedTo="0"/>
        <edge id="-137830193" sampledSeconds="0.00" departed="0" arrived="0" entered="0" left="0" laneChangedFrom="0" laneChangedTo="0"/>
        <edge id="-14340721" sampledSeconds="0.00" departed="0" arrived="0" entered="0" left="0" laneChangedFrom="0" laneChangedTo="0"/>
        <edge id="-14340744" sampledSeconds="698.42" traveltime="21.35" overlapTraveltime="21.84" density="0.88" laneDensity="0.88" occupancy="0.43" waitingTime="0.00" timeLoss="42.14" speed="10.31" speedRelative="0.93" departed="0" arrived="3" entered="32" left="29" laneChangedFrom="0" laneChangedTo="0"/>
        <edge id="-151406472" sampledSeconds="0.00" departed="0" arrived="0" entered="0" left="0" laneChangedFrom="0" laneChangedTo="0"/>
        <edge id="-151406814#0" sampledSeconds="0.00" departed="0" arrived="0" entered="0" left="0" laneChangedFrom="0" laneChangedTo="0"/>
        <edge id="-151406814#1" sampledSeconds="0.00" departed="0" arrived="0" entered="0" left="0" laneChangedFrom="0" laneChangedTo="0"/>
        <edge id="-151406814#2" sampledSeconds="0.00" departed="0" arrived="0" entered="0" left="0" laneChangedFrom="0" laneChangedTo="0"/>
        <edge id="-151406814#3" sampledSeconds="0.00" departed="0" arrived="0" entered="0" left="0" laneChangedFrom="0" laneChangedTo="0"/>
        <edge id="-151406814#4" sampledSeconds="0.00" departed="0" arrived="0" entered="0" left="0" laneChangedFrom="0" laneChangedTo="0"/>
        <edge id="-151406817#0" sampledSeconds="0.00" departed="0" arrived="0" entered="0" left="0" laneChangedFrom="0" laneChangedTo="0"/>
        <edge id="-151406817#1" sampledSeconds="0.00" departed="0" arrived="0" entered="0" left="0" laneChangedFrom="0" laneChangedTo="0"/>
        <edge id="-151406818#0" sampledSeconds="0.00" departed="0" arrived="0" entered="0" left="0" laneChangedFrom="0" laneChangedTo="0"/>
        <edge id="-151406818#1" sampledSeconds="0.00" departed="0" arrived="0" entered="0" left="0" laneChangedFrom="0" laneChangedTo="0"/>
        <edge id="-151406818#2" sampledSeconds="0.00" departed="0" arrived="0" entered="0" left="0" laneChangedFrom="0" laneChangedTo="0"/>
        <edge id="-151406910" sampledSeconds="0.00" departed="0" arrived="0" entered="0" left="0" laneChangedFrom="0" laneChangedTo="0"/>
        <edge id="-153102313#0" sampledSeconds="0.00" departed="0" arrived="0" entered="0" left="0" laneChangedFrom="0" laneChangedTo="0"/>
        <edge id="-153102313#1" sampledSeconds="0.00" departed="0" arrived="0" entered="0" left="0" laneChangedFrom="0" laneChangedTo="0"/>
        <edge id="-153102313#2" sampledSeconds="0.00" departed="0" arrived="0" entered="0" left="0" laneChangedFrom="0" laneChangedTo="0"/>
        <edge id="-16465950#0" sampledSeconds="80.83" traveltime="3.57" overlapTraveltime="4.44" density="1.04" laneDensity="1.04" occupancy="0.43" waitingTime="0.00" timeLoss="17.81" speed="5.99" speedRelative="0.72" departed="4" arrived="3" entered="15" left="16" laneChangedFrom="0" laneChangedTo="0"/>
        <edge id="-16465950#1" sampledSeconds="123.43" traveltime="7.67" overlapTraveltime="8.33" density="0.61" laneDensity="0.61" occupancy="0.28" waitingTime="0.00" timeLoss="12.90" speed="7.30" speedRelative="0.88" departed="1" arrived="4" entered="14" left="11" laneChangedFrom="0" laneChangedTo="0"/>
        <edge id="-16465950#2" sampledSeconds="293.75" traveltime="9.05" overlapTraveltime="9.79" density="1.23" laneDensity="1.23" occupancy="0.57" waitingTime="0.00" timeLoss="33.69" speed="7.28" speedRelative="0.87" departed="0" arrived="1" entered="30" left="29" laneChangedFrom="0" laneChangedTo="0"/>
        <edge id="-16465950#3" sampledSeconds="323.24" traveltime="8.77" overlapTraveltime="9.53" density="1.41" laneDensity="1.41" occupancy="0.65" waitingTime="3.00" timeLoss="40.45" speed="7.19" speedRelative="0.86" departed="1" arrived="0" entered="33" left="34" laneChangedFrom="0" laneChangedTo="0"/>
        <edge id="-16465952" sampledSeconds="277.32" traveltime="13.89" overlapTraveltime="14.72" density="0.74" laneDensity="0.74" occupancy="0.35" waitingTime="2.00" timeLoss="34.23" speed="7.39" speedRelative="0.89" departed="2" arrived="2" entered="17" left="17" laneChangedFrom="0" laneChangedTo="0"/>
        <edge id="-16465956#0" sampledSeconds="48.08" traveltime="4.86" overlapTraveltime="5.62" density="0.45" laneDensity="0.45" occupancy="0.20" waitingTime="0.00" timeLoss="12.26" speed="6.15" speedRelative="0.74" departed="3" arrived="0" entered="6" left="9" laneChangedFrom="0" laneChangedTo="0"/>
        <edge id="-16465956#1" sampledSeconds="12.40" traveltime="1.77" overlapTraveltime="2.48" density="0.28" laneDensity="0.28" occupancy="0.10" waitingTime="0.00" timeLoss="1.18" speed="7.06" speedRelative="0.85" departed="0" arrived="0" entered="5" left="5" laneChangedFrom="0" laneChangedTo="0"/>
        <edge id="-16465956#2" sampledSeconds="32.07" traveltime="2.90" overlapTraveltime="3.85" density="0.49" laneDensity="0.49" occupancy="0.20" waitingTime="0.00" timeLoss="6.58" speed="6.00" speedRelative="0.72" departed="2" arrived="2" entered="7" left="7" laneChangedFrom="0" laneChangedTo="0"/>
        <edge id="-16465958#0" sampledSeconds="32.65" traveltime="2.62" overlapTraveltime="3.39" density="0.52" laneDensity="0.52" occupancy="0.21" waitingTime="0.00" timeLoss="5.25" speed="6.59" speedRelative="0.79" departed="1" arrived="1" entered="9" left="9" laneChangedFrom="0" laneChangedTo="0"/>
        <edge id="-16465958#1" sampledSeconds="49.66" traveltime="2.65" overlapTraveltime="3.50" density="0.80" laneDensity="0.80" occupancy="0.32" waitingTime="0.00" timeLoss="9.44" speed="6.39" speedRelative="0.77" departed="2" arrived="4" entered="13" left="11" laneChangedFrom="0" laneChangedTo="0"/>
        <edge id="-16465958#2" sampledSeconds="35.52" traveltime="2.07" overlapTraveltime="2.73" density="0.66" laneDensity="0.66" occupancy="0.24" waitingTime="0.00" timeLoss="3.83" speed="7.34" speedRelative="0.88" departed="0" arrived="0" entered="13" left="13" laneChangedFrom="0" laneChangedTo="0"/>
        <edge id="-16465959#0" sampledSeconds="73.60" traveltime="3.00" overlapTraveltime="3.72" density="0.99" laneDensity="0.99" occupancy="0.40" waitingTime="0.00" timeLoss="10.20" speed="6.92" speedRelative="0.83" departed="1" arrived="0" entered="19" left="20" laneChangedFrom="0" laneChangedTo="0"/>
        <edge id="-16465959#1" sampledSeconds="70.62" traveltime="5.28" overlapTraveltime="5.98" density="0.50" laneDensity="0.50" occupancy="0.22" waitingTime="0.00" timeLoss="9.14" speed="7.37" speedRelative="0.88" departed="1" arrived="3" entered="11" left="9" laneChangedFrom="0" laneChangedTo="0"/>