<?xml version="1.0" encoding="UTF-8"?>

<!-- generated on 2025-11-08 20:18:48 by Eclipse SUMO sumo Version 1.24.0
<sumoConfiguration xmlns:xsi="http://www.w3.org/2001/XMLSchema-instance" xsi:noNamespaceSchemaLocation="http://sumo.dlr.de/xsd/sumoConfiguration.xsd">

    <input>
        <net-file value="osm.net.xml.gz"/>
        <route-files value="osm.passenger.trips.xml"/>
        <additional-files value="osm.poly.xml.gz,output.add.xml"/>
    </input>

    <output>
        <fcd-output value="sumoTrace.xml"/>
        <tripinfo-output value="tripinfos.xml"/>
        <statistic-output value="stats.xml"/>
    </output>

    <processing>
        <ignore-route-errors value="true"/>
        <tls.actuated.jam-threshold value="30"/>
    </processing>

    <routing>
        <device.rerouting.adaptation-steps value="18"/>
        <device.rerouting.adaptation-interval value="10"/>
    </routing>

    <report>
        <verbose value="true"/>
        <duration-log.statistics value="true"/>
        <no-step-log value="true"/>
    </report>

    <gui_only>
        <gui-settings-file value="osm.view.xml"/>
    </gui_only>

</sumoConfiguration>
-->

<tripinfos xmlns:xsi="http://www.w3.org/2001/XMLSchema-instance" xsi:noNamespaceSchemaLocation="http://sumo.dlr.de/xsd/tripinfo_file.xsd">
    <tripinfo id="veh2" depart="16.00" departLane="-16465959#1_0" departPos="5.10" departSpeed="0.00" departDelay="0.70" arrival="69.00" arrivalLane="1294818351_0" arrivalPos="71.45" arrivalSpeed="7.41" duration="53.00" routeLength="387.97" waitingTime="0.00" waitingCount="0" stopTime="0.00" timeLoss="6.66" rerouteNo="1" devices="tripinfo_veh2 routing_veh2 fcd_veh2" vType="veh_passenger" speedFactor="1.01" vaporized=""/>
    <tripinfo id="veh0" depart="0.00" departLane="-487101504_0" departPos="5.10" departSpeed="8.83" departDelay="0.00" arrival="84.00" arrivalLane="-398190313#9_0" arrivalPos="86.02" arrivalSpeed="8.65" duration="84.00" routeLength="700.16" waitingTime="0.00" waitingCount="0" stopTime="0.00" timeLoss="7.40" rerouteNo="1" devices="tripinfo_veh0 routing_veh0 fcd_veh0" vType="veh_passenger" speedFactor="1.06" vaporized=""/>
    <tripinfo id="veh1" depart="8.00" departLane="532086362_0" departPos="5.10" departSpeed="0.00" departDelay="0.35" arrival="109.00" arrivalLane="16465956#2_0" arrivalPos="18.12" arrivalSpeed="6.79" duration="101.00" routeLength="680.82" waitingTime="0.00" waitingCount="0" stopTime="0.00" timeLoss="12.13" rerouteNo="1" devices="tripinfo_veh1 routing_veh1 fcd_veh1" vType="veh_passenger" speedFactor="0.94" vaporized=""/>
    <tripinfo id="veh5" depart="39.00" departLane="-16465959#2_0" departPos="5.10" departSpeed="0.00" departDelay="0.75" arrival="120.00" arrivalLane="137209469_0" arrivalPos="0.20" arrivalSpeed="4.61" duration="81.00" routeLength="481.54" waitingTime="0.00" waitingCount="0" stopTime="0.00" timeLoss="9.66" rerouteNo="1" devices="tripinfo_veh5 routing_veh5 fcd_veh5" vType="veh_passenger" speedFactor="0.83" vaporized=""/>
    <tripinfo id="veh11" depart="85.00" departLane="674173236#0_0" departPos="5.10" departSpeed="0.00" departDelay="0.86" arrival="125.00" arrivalLane="201237460#1_0" arrivalPos="81.42" arrivalSpeed="19.68" duration="40.00" routeLength="336.02" waitingTime="7.00" waitingCount="1" stopTime="0.00" timeLoss="20.03" rerouteNo="1" devices="tripinfo_veh11 routing_veh11 fcd_veh11" vType="veh_passenger" speedFactor="1.03" vaporized=""/>
    <tripinfo id="veh3" depart="23.00" departLane="-1294818343#1_0" departPos="5.10" departSpeed="0.00" departDelay="0.05" arrival="132.00" arrivalLane="-398190313#1_0" arrivalPos="79.55" arrivalSpeed="8.85" duration="109.00" routeLength="874.69" waitingTime="0.00" waitingCount="0" stopTime="0.00" timeLoss="10.76" rerouteNo="1" devices="tripinfo_veh3 routing_veh3 fcd_veh3" vType="veh_passenger" speedFactor="1.08" vaporized=""/>
    <tripinfo id="veh14" depart="108.00" departLane="759535259#0_0" departPos="5.10" departSpeed="19.27" departDelay="0.91" arrival="137.00" arrivalLane="14340729_0" arrivalPos="32.21" arrivalSpeed="14.49" duration="29.00" routeLength="342.53" waitingTime="0.00" waitingCount="0" stopTime="0.00" timeLoss="6.99" rerouteNo="1" devices="tripinfo_veh14 routing_veh14 fcd_veh14" vType="veh_passenger" speedFactor="0.99" vaporized=""/>
    <tripinfo id="veh4" depart="31.00" departLane="16465959#2_0" departPos="5.10" departSpeed="0.00" departDelay="0.40" arrival="165.00" arrivalLane="1309692164#1_0" arrivalPos="15.79" arrivalSpeed="10.85" duration="134.00" routeLength="1089.50" waitingTime="0.00" waitingCount="0" stopTime="0.00" timeLoss="16.50" rerouteNo="1" devices="tripinfo_veh4 routing_veh4 fcd_veh4" vType="veh_passenger" speedFactor="1.03" vaporized=""/>
    <tripinfo id="veh15" depart="115.00" departLane="759535259#0_1" departPos="5.10" departSpeed="18.02" departDelay="0.26" arrival="165.00" arrivalLane="137191883_0" arrivalPos="16.79" arrivalSpeed="9.56" duration="50.00" routeLength="486.22" waitingTime="0.00" waitingCount="0" stopTime="0.00" timeLoss="4.68" rerouteNo="1" devices="tripinfo_veh15 routing_veh15 fcd_veh15" vType="veh_passenger" speedFactor="0.93" vaporized=""/>
    <tripinfo id="veh12" depart="92.00" departLane="137209465_0" departPos="0.20" departSpeed="0.00" departDelay="0.21" arrival="166.00" arrivalLane="8597107#3_0" arrivalPos="94.76" arrivalSpeed="7.83" duration="74.00" routeLength="566.97" waitingTime="0.00" waitingCount="0" stopTime="0.00" timeLoss="8.51" rerouteNo="1" devices="tripinfo_veh12 routing_veh12 fcd_veh12" vType="veh_passenger" speedFactor="1.05" vaporized=""/>
    <tripinfo id="veh7" depart="54.00" departLane="674173236#0_0" departPos="5.10" departSpeed="0.00" departDelay="0.45" arrival="167.00" arrivalLane="16465959#2_0" arrivalPos="16.41" arrivalSpeed="7.14" duration="113.00" routeLength="804.41" waitingTime="0.00" waitingCount="0" stopTime="0.00" timeLoss="15.02" rerouteNo="1" devices="tripinfo_veh7 routing_veh7 fcd_veh7" vType="veh_passenger" speedFactor="0.89" vaporized=""/>
    <tripinfo id="veh8" depart="65.00" departLane="-78140414#0_0" departPos="5.10" departSpeed="0.00" departDelay="3.80" arrival="167.00" arrivalLane="-16465958#1_0" arrivalPos="17.33" arrivalSpeed="7.14" duration="102.00" routeLength="701.55" waitingTime="0.00" waitingCount="0" stopTime="0.00" timeLoss="11.47" rerouteNo="1" devices="tripinfo_veh8 routing_veh8 fcd_veh8" vType="veh_passenger" speedFactor="0.94" vaporized=""/>
    <tripinfo id="veh6" depart="46.00" departLane="674173236#0_0" departPos="5.10" departSpeed="0.00" departDelay="0.10" arrival="168.00" arrivalLane="-1294818340#1_0" arrivalPos="64.39" arrivalSpeed="8.46" duration="122.00" routeLength="1032.75" waitingTime="0.00" waitingCount="0" stopTime="0.00" timeLoss="16.34" rerouteNo="1" devices="tripinfo_veh6 routing_veh6 fcd_veh6" vType="veh_passenger" speedFactor="1.05" vaporized=""/>
    <tripinfo id="veh10" depart="77.00" departLane="-1294818350#0_0" departPos="5.10" departSpeed="0.00" departDelay="0.51" arrival="169.00" arrivalLane="-1309210016_0" arrivalPos="18.85" arrivalSpeed="8.06" duration="92.00" routeLength="731.35" waitingTime="0.00" waitingCount="0" stopTime="0.00" timeLoss="10.93" rerouteNo="1" devices="tripinfo_veh10 routing_veh10 fcd_veh10" vType="veh_passenger" speedFactor="1.09" vaporized=""/>
    <tripinfo id="veh9" depart="69.00" departLane="8170204_0" departPos="5.10" departSpeed="0.00" departDelay="0.15" arrival="171.00" arrivalLane="-8875439_0" arrivalPos="54.54" arrivalSpeed="7.03" duration="102.00" routeLength="642.18" waitingTime="0.00" waitingCount="0" stopTime="0.00" timeLoss="11.02" rerouteNo="1" devices="tripinfo_veh9 routing_veh9 fcd_veh9" vType="veh_passenger" speedFactor="0.86" vaporized=""/>
    <tripinfo id="veh13" depart="100.00" departLane="-8625131#1_0" departPos="5.10" departSpeed="0.00" departDelay="0.56" arrival="183.00" arrivalLane="1353874822_0" arrivalPos="0.20" arrivalSpeed="6.51" duration="83.00" routeLength="663.63" waitingTime="0.00" waitingCount="0" stopTime="0.00" timeLoss="11.49" rerouteNo="1" devices="tripinfo_veh13 routing_veh13 fcd_veh13" vType="veh_passenger" speedFactor="1.12" vaporized=""/>
    <tripinfo id="veh18" depart="138.00" departLane="-1294818353_0" departPos="5.10" departSpeed="0.00" departDelay="0.31" arrival="192.00" arrivalLane="-541361416_0" arrivalPos="16.77" arrivalSpeed="12.92" duration="54.00" routeLength="472.31" waitingTime="0.00" waitingCount="0" stopTime="0.00" timeLoss="8.57" rerouteNo="1" devices="tripinfo_veh18 routing_veh18 fcd_veh18" vType="veh_passenger" speedFactor="0.94" vaporized=""/>
    <tripinfo id="veh17" depart="131.00" departLane="-1294818348_0" departPos="5.10" departSpeed="0.00" departDelay="0.96" arrival="224.00" arrivalLane="-532086362_0" arrivalPos="21.08" arrivalSpeed="6.92" duration="93.00" routeLength="622.23" waitingTime="0.00" waitingCount="0" stopTime="0.00" timeLoss="12.16" rerouteNo="1" devices="tripinfo_veh17 routing_veh17 fcd_veh17" vType="veh_passenger" speedFactor="0.94" vaporized=""/>
    <tripinfo id="veh20" depart="153.00" departLane="-8597107#2_0" departPos="5.10" departSpeed="0.00" departDelay="0.01" arrival="237.00" arrivalLane="-398190313#4_0" arrivalPos="0.20" arrivalSpeed="8.17" duration="84.00" routeLength="570.18" waitingTime="0.00" waitingCount="0" stopTime="0.00" timeLoss="15.46" rerouteNo="1" devices="tripinfo_veh20 routing_veh20 fcd_veh20" vType="veh_passenger" speedFactor="1.02" vaporized=""/>
    <tripinfo id="veh24" depart="184.00" departLane="759535259#0_1" departPos="5.10" departSpeed="16.05" departDelay="0.41" arrival="255.00" arrivalLane="278787274#0_0" arrivalPos="24.35" arrivalSpeed="5.70" duration="71.00" routeLength="577.18" waitingTime="0.00" waitingCount="0" stopTime="0.00" timeLoss="7.62" rerouteNo="1" devices="tripinfo_veh24 routing_veh24 fcd_veh24" vType="veh_passenger" speedFactor="0.83" vaporized=""/>
    <tripinfo id="veh27" depart="207.00" departLane="-398190313#7_0" departPos="0.20" departSpeed="0.00" departDelay="0.46" arrival="264.00" arrivalLane="-541359186#1_0" arrivalPos="40.03" arrivalSpeed="10.26" duration="57.00" routeLength="432.54" waitingTime="0.00" waitingCount="0" stopTime="0.00" timeLoss="8.66" rerouteNo="1" devices="tripinfo_veh27 routing_veh27 fcd_veh27" vType="veh_passenger" speedFactor="0.95" vaporized=""/>
    <tripinfo id="veh21" depart="161.00" departLane="-398190313#7_0" departPos="0.20" departSpeed="0.00" departDelay="0.36" arrival="270.00" arrivalLane="8029078#1_0" arrivalPos="91.71" arrivalSpeed="7.83" duration="109.00" routeLength="813.31" waitingTime="0.00" waitingCount="0" stopTime="0.00" timeLoss="11.87" rerouteNo="1" devices="tripinfo_veh21 routing_veh21 fcd_veh21" vType="veh_passenger" speedFactor="1.01" vaporized=""/>
    <tripinfo id="veh19" depart="146.00" departLane="16465958#1_0" departPos="5.10" departSpeed="0.00" departDelay="0.66" arrival="271.00" arrivalLane="-9750333#1_0" arrivalPos="58.05" arrivalSpeed="14.89" duration="125.00" routeLength="1178.19" waitingTime="0.00" waitingCount="0" stopTime="0.00" timeLoss="15.59" rerouteNo="1" devices="tripinfo_veh19 routing_veh19 fcd_veh19" vType="veh_passenger" speedFactor="1.16" vaporized=""/>
    <tripinfo id="veh28" depart="215.00" departLane="14340731_0" departPos="5.10" departSpeed="0.00" departDelay="0.82" arrival="274.00" arrivalLane="6167202_0" arrivalPos="0.20" arrivalSpeed="7.42" duration="59.00" routeLength="566.66" waitingTime="0.00" waitingCount="0" stopTime="0.00" timeLoss="12.23" rerouteNo="1" devices="tripinfo_veh28 routing_veh28 fcd_veh28" vType="veh_passenger" speedFactor="1.13" vaporized=""/>
    <tripinfo id="veh16" depart="123.00" departLane="398190313#0_0" departPos="5.10" departSpeed="0.00" departDelay="0.61" arrival="285.00" arrivalLane="-1294818346#1_0" arrivalPos="48.29" arrivalSpeed="6.68" duration="162.00" routeLength="1051.93" waitingTime="0.00" waitingCount="0" stopTime="0.00" timeLoss="17.06" rerouteNo="1" devices="tripinfo_veh16 routing_veh16 fcd_veh16" vType="veh_passenger" speedFactor="0.88" vaporized=""/>
    <tripinfo id="veh30" depart="230.00" departLane="93756990_0" departPos="5.10" departSpeed="0.00" departDelay="0.52" arrival="291.00" arrivalLane="1294818353_0" arrivalPos="14.16" arrivalSpeed="10.49" duration="61.00" routeLength="478.65" waitingTime="0.00" waitingCount="0" stopTime="0.00" timeLoss="12.08" rerouteNo="1" devices="tripinfo_veh30 routing_veh30 fcd_veh30" vType="veh_passenger" speedFactor="1.18" vaporized=""/>
    <tripinfo id="veh31" depart="238.00" departLane="-1294818350#0_0" departPos="5.10" departSpeed="0.00" departDelay="0.87" arrival="303.00" arrivalLane="-1294818346#2_0" arrivalPos="11.90" arrivalSpeed="8.50" duration="65.00" routeLength="531.53" waitingTime="0.00" waitingCount="0" stopTime="0.00" timeLoss="8.66" rerouteNo="1" devices="tripinfo_veh31 routing_veh31 fcd_veh31" vType="veh_passenger" speedFactor="1.15" vaporized=""/>
    <tripinfo id="veh26" depart="199.00" departLane="78140414#0_0" departPos="5.10" departSpeed="0.00" departDelay="0.11" arrival="308.00" arrivalLane="-8597107#0_0" arrivalPos="25.77" arrivalSpeed="7.47" duration="109.00" routeLength="715.30" waitingTime="0.00" waitingCount="0" stopTime="0.00" timeLoss="14.85" rerouteNo="1" devices="tripinfo_veh26 routing_veh26 fcd_veh26" vType="veh_passenger" speedFactor="0.92" vaporized=""/>
    <tripinfo id="veh29" depart="222.00" departLane="1294818341_0" departPos="5.10" departSpeed="0.00" departDelay="0.17" arrival="317.00" arrivalLane="-398190313#8_0" arrivalPos="1.46" arrivalSpeed="6.48" duration="95.00" routeLength="644.28" waitingTime="0.00" waitingCount="0" stopTime="0.00" timeLoss="10.32" rerouteNo="1" devices="tripinfo_veh29 routing_veh29 fcd_veh29" vType="veh_passenger" speedFactor="0.93" vaporized=""/>
    <tripinfo id="veh25" depart="192.00" departLane="-278787274#1_0" departPos="5.10" departSpeed="0.00" departDelay="0.76" arrival="329.00" arrivalLane="-1294818344_0" arrivalPos="71.37" arrivalSpeed="6.17" duration="137.00" routeLength="868.84" waitingTime="0.00" waitingCount="0" stopTime="0.00" timeLoss="16.28" rerouteNo="1" devices="tripinfo_veh25 routing_veh25 fcd_veh25" vType="veh_passenger" speedFactor="0.87" vaporized=""/>
    <tripinfo id="veh22" depart="169.00" departLane="-136473724_0" departPos="5.10" departSpeed="0.00" departDelay="0.71" arrival="330.00" arrivalLane="-9750333#1_0" arrivalPos="58.05" arrivalSpeed="13.17" duration="161.00" routeLength="1260.08" waitingTime="0.00" waitingCount="0" stopTime="0.00" timeLoss="20.00" rerouteNo="1" devices="tripinfo_veh22 routing_veh22 fcd_veh22" vType="veh_passenger" speedFactor="0.97" vaporized=""/>
    <tripinfo id="veh33" depart="253.00" departLane="6167203_0" departPos="5.10" departSpeed="0.00" departDelay="0.57" arrival="341.00" arrivalLane="1294818342#3_0" arrivalPos="48.26" arrivalSpeed="9.25" duration="88.00" routeLength="720.04" waitingTime="0.00" waitingCount="0" stopTime="0.00" timeLoss="13.06" rerouteNo="1" devices="tripinfo_veh33 routing_veh33 fcd_veh33" vType="veh_passenger" speedFactor="1.17" vaporized=""/>
    <tripinfo id="veh32" depart="245.00" departLane="-1294818356#1_0" departPos="5.10" departSpeed="8.37" departDelay="0.22" arrival="342.00" arrivalLane="14340731_0" arrivalPos="7.96" arrivalSpeed="11.83" duration="97.00" routeLength="820.20" waitingTime="0.00" waitingCount="0" stopTime="0.00" timeLoss="11.98" rerouteNo="1" devices="tripinfo_veh32 routing_veh32 fcd_veh32" vType="veh_passenger" speedFactor="1.01" vaporized=""/>
    <tripinfo id="veh38" depart="293.00" departLane="78140414#0_0" departPos="5.10" departSpeed="0.00" departDelay="2.32" arrival="347.00" arrivalLane="-541361416_0" arrivalPos="16.77" arrivalSpeed="14.37" duration="54.00" routeLength="515.84" waitingTime="0.00" waitingCount="0" stopTime="0.00" timeLoss="11.16" rerouteNo="1" devices="tripinfo_veh38 routing_veh38 fcd_veh38" vType="veh_passenger" speedFactor="1.10" vaporized=""/>
    <tripinfo id="veh23" depart="176.00" departLane="137308922#1_0" departPos="5.10" departSpeed="0.00" departDelay="0.06" arrival="350.00" arrivalLane="16465958#1_0" arrivalPos="17.03" arrivalSpeed="7.36" duration="174.00" routeLength="1280.05" waitingTime="0.00" waitingCount="0" stopTime="0.00" timeLoss="21.52" rerouteNo="1" devices="tripinfo_veh23 routing_veh23 fcd_veh23" vType="veh_passenger" speedFactor="0.89" vaporized=""/>
    <tripinfo id="veh40" depart="306.00" departLane="-487101504_0" departPos="5.10" departSpeed="8.58" departDelay="0.02" arrival="356.00" arrivalLane="14340736_0" arrivalPos="13.11" arrivalSpeed="10.51" duration="50.00" routeLength="394.40" waitingTime="0.00" waitingCount="0" stopTime="0.00" timeLoss="4.17" rerouteNo="1" devices="tripinfo_veh40 routing_veh40 fcd_veh40" vType="veh_passenger" speedFactor="1.03" vaporized=""/>
    <tripinfo id="veh37" depart="284.00" departLane="-1294818356#1_0" departPos="5.10" departSpeed="9.83" departDelay="0.97" arrival="381.00" arrivalLane="1294818344_0" arrivalPos="71.41" arrivalSpeed="9.26" duration="97.00" routeLength="838.70" waitingTime="0.00" waitingCount="0" stopTime="0.00" timeLoss="10.23" rerouteNo="1" devices="tripinfo_veh37 routing_veh37 fcd_veh37" vType="veh_passenger" speedFactor="1.18" vaporized=""/>
    <tripinfo id="veh34" depart="261.00" departLane="8597107#2_0" departPos="5.10" departSpeed="0.00" departDelay="0.92" arrival="387.00" arrivalLane="541359186#1_0" arrivalPos="40.35" arrivalSpeed="10.64" duration="126.00" routeLength="1058.12" waitingTime="0.00" waitingCount="0" stopTime="0.00" timeLoss="13.42" rerouteNo="1" devices="tripinfo_veh34 routing_veh34 fcd_veh34" vType="veh_passenger" speedFactor="0.99" vaporized=""/>
    <tripinfo id="veh36" depart="276.00" departLane="278787274#3_0" departPos="5.10" departSpeed="0.00" departDelay="0.62" arrival="391.00" arrivalLane="1309692163_0" arrivalPos="58.73" arrivalSpeed="9.96" duration="115.00" routeLength="839.05" waitingTime="5.00" waitingCount="1" stopTime="0.00" timeLoss="22.16" rerouteNo="1" devices="tripinfo_veh36 routing_veh36 fcd_veh36" vType="veh_passenger" speedFactor="0.97" vaporized=""/>
    <tripinfo id="veh39" depart="299.00" departLane="1309692164#1_0" departPos="5.10" departSpeed="0.00" departDelay="0.67" arrival="408.00" arrivalLane="-278787274#2_0" arrivalPos="59.41" arrivalSpeed="7.33" duration="109.00" routeLength="724.45" waitingTime="8.00" waitingCount="1" stopTime="0.00" timeLoss="23.08" rerouteNo="1" devices="tripinfo_veh39 routing_veh39 fcd_veh39" vType="veh_passenger" speedFactor="0.90" vaporized=""/>
    <tripinfo id="veh42" depart="322.00" departLane="-1294818342#3_0" departPos="5.10" departSpeed="0.00" departDelay="0.72" arrival="412.00" arrivalLane="78140414#0_0" arrivalPos="36.42" arrivalSpeed="9.08" duration="90.00" routeLength="713.91" waitingTime="0.00" waitingCount="0" stopTime="0.00" timeLoss="10.13" rerouteNo="1" devices="tripinfo_veh42 routing_veh42 fcd_veh42" vType="veh_passenger" speedFactor="1.09" vaporized=""/>
    <tripinfo id="veh51" depart="391.00" departLane="8076778_0" departPos="5.10" departSpeed="16.24" departDelay="0.88" arrival="423.00" arrivalLane="137191880_0" arrivalPos="20.55" arrivalSpeed="11.87" duration="32.00" routeLength="365.44" waitingTime="0.00" waitingCount="0" stopTime="0.00" timeLoss="4.61" rerouteNo="1" devices="tripinfo_veh51 routing_veh51 fcd_veh51" vType="veh_passenger" speedFactor="1.17" vaporized=""/>
    <tripinfo id="veh41" depart="314.00" departLane="541361416_0" departPos="5.10" departSpeed="13.29" departDelay="0.37" arrival="429.00" arrivalLane="1294818358#1_0" arrivalPos="77.30" arrivalSpeed="6.94" duration="115.00" routeLength="866.69" waitingTime="0.00" waitingCount="0" stopTime="0.00" timeLoss="15.07" rerouteNo="1" devices="tripinfo_veh41 routing_veh41 fcd_veh41" vType="veh_passenger" speedFactor="0.96" vaporized=""/>
    <tripinfo id="veh45" depart="345.00" departLane="-398190313#7_0" departPos="0.20" departSpeed="0.00" departDelay="0.77" arrival="429.00" arrivalLane="6140652_0" arrivalPos="75.84" arrivalSpeed="8.80" duration="84.00" routeLength="698.80" waitingTime="1.00" waitingCount="1" stopTime="0.00" timeLoss="18.88" rerouteNo="1" devices="tripinfo_veh45 routing_veh45 fcd_veh45" vType="veh_passenger" speedFactor="1.09" vaporized=""/>
    <tripinfo id="veh47" depart="360.00" departLane="137209468_0" departPos="0.20" departSpeed="0.00" departDelay="0.48" arrival="436.00" arrivalLane="201237460#1_0" arrivalPos="81.42" arrivalSpeed="17.15" duration="76.00" routeLength="531.83" waitingTime="11.00" waitingCount="1" stopTime="0.00" timeLoss="22.56" rerouteNo="1" devices="tripinfo_veh47 routing_veh47 fcd_veh47" vType="veh_passenger" speedFactor="0.90" vaporized=""/>
    <tripinfo id="veh35" depart="268.00" departLane="-1294818342#0_0" departPos="5.10" departSpeed="0.00" departDelay="0.27" arrival="438.00" arrivalLane="201237460#1_0" arrivalPos="81.42" arrivalSpeed="19.21" duration="170.00" routeLength="1276.57" waitingTime="11.00" waitingCount="1" stopTime="0.00" timeLoss="34.75" rerouteNo="1" devices="tripinfo_veh35 routing_veh35 fcd_veh35" vType="veh_passenger" speedFactor="1.02" vaporized=""/>
    <tripinfo id="veh43" depart="329.00" departLane="78140414#0_0" departPos="5.10" departSpeed="0.00" departDelay="0.07" arrival="447.00" arrivalLane="8029080#2_0" arrivalPos="26.75" arrivalSpeed="7.43" duration="118.00" routeLength="885.75" waitingTime="0.00" waitingCount="0" stopTime="0.00" timeLoss="14.01" rerouteNo="1" devices="tripinfo_veh43 routing_veh43 fcd_veh43" vType="veh_passenger" speedFactor="1.04" vaporized=""/>
    <tripinfo id="veh48" depart="368.00" departLane="-16465956#2_0" departPos="5.10" departSpeed="0.00" departDelay="0.83" arrival="461.00" arrivalLane="-8170204_0" arrivalPos="100.73" arrivalSpeed="6.66" duration="93.00" routeLength="601.63" waitingTime="0.00" waitingCount="0" stopTime="0.00" timeLoss="9.81" rerouteNo="1" devices="tripinfo_veh48 routing_veh48 fcd_veh48" vType="veh_passenger" speedFactor="0.88" vaporized=""/>
    <tripinfo id="veh44" depart="337.00" departLane="541361416_0" departPos="5.10" departSpeed="14.49" departDelay="0.42" arrival="463.00" arrivalLane="-16465950#1_0" arrivalPos="55.82" arrivalSpeed="8.43" duration="126.00" routeLength="1046.87" waitingTime="0.00" waitingCount="0" stopTime="0.00" timeLoss="13.99" rerouteNo="1" devices="tripinfo_veh44 routing_veh44 fcd_veh44" vType="veh_passenger" speedFactor="1.04" vaporized=""/>
    <tripinfo id="veh54" depart="414.00" departLane="759535259#0_0" departPos="5.10" departSpeed="19.50" departDelay="0.93" arrival="463.00" arrivalLane="-541359186#1_1" arrivalPos="40.03" arrivalSpeed="11.04" duration="49.00" routeLength="550.68" waitingTime="0.00" waitingCount="0" stopTime="0.00" timeLoss="7.63" rerouteNo="1" devices="tripinfo_veh54 routing_veh54 fcd_veh54" vType="veh_passenger" speedFactor="1.00" vaporized=""/>
    <tripinfo id="veh46" depart="352.00" departLane="1294818344_0" departPos="5.10" departSpeed="0.00" departDelay="0.13" arrival="468.00" arrivalLane="-398190313#5_0" arrivalPos="32.68" arrivalSpeed="7.73" duration="116.00" routeLength="852.08" waitingTime="0.00" waitingCount="0" stopTime="0.00" timeLoss="11.82" rerouteNo="1" devices="tripinfo_veh46 routing_veh46 fcd_veh46" vType="veh_passenger" speedFactor="1.00" vaporized=""/>
    <tripinfo id="veh53" depart="406.00" departLane="398190313#8_0" departPos="1.46" departSpeed="0.00" departDelay="0.58" arrival="496.00" arrivalLane="16465956#1_0" arrivalPos="12.52" arrivalSpeed="8.93" duration="90.00" routeLength="718.46" waitingTime="0.00" waitingCount="0" stopTime="0.00" timeLoss="10.36" rerouteNo="1" devices="tripinfo_veh53 routing_veh53 fcd_veh53" vType="veh_passenger" speedFactor="1.10" vaporized=""/>
    <tripinfo id="veh49" depart="375.00" departLane="1294818346#2_0" departPos="5.10" departSpeed="0.00" departDelay="0.18" arrival="506.00" arrivalLane="1294818356#1_0" arrivalPos="11.57" arrivalSpeed="6.87" duration="131.00" routeLength="830.61" waitingTime="0.00" waitingCount="0" stopTime="0.00" timeLoss="13.17" rerouteNo="1" devices="tripinfo_veh49 routing_veh49 fcd_veh49" vType="veh_passenger" speedFactor="0.85" vaporized=""/>
    <tripinfo id="veh50" depart="383.00" departLane="759535259#0_1" departPos="5.10" departSpeed="16.62" departDelay="0.53" arrival="544.00" arrivalLane="-1294818350#1_0" arrivalPos="69.69" arrivalSpeed="6.93" duration="161.00" routeLength="1158.04" waitingTime="0.00" waitingCount="0" stopTime="0.00" timeLoss="17.90" rerouteNo="1" devices="tripinfo_veh50 routing_veh50 fcd_veh50" vType="veh_passenger" speedFactor="0.85" vaporized=""/>
    <tripinfo id="veh61" depart="467.00" departLane="1294818358#0_0" departPos="5.10" departSpeed="0.00" departDelay="0.38" arrival="551.00" arrivalLane="-398190313#5_0" arrivalPos="32.68" arrivalSpeed="8.66" duration="84.00" routeLength="687.95" waitingTime="0.00" waitingCount="0" stopTime="0.00" timeLoss="9.31" rerouteNo="1" devices="tripinfo_veh61 routing_veh61 fcd_veh61" vType="veh_passenger" speedFactor="1.12" vaporized=""/>
    <tripinfo id="veh56" depart="429.00" departLane="-398190313#1_0" departPos="5.10" departSpeed="0.00" departDelay="0.63" arrival="563.00" arrivalLane="674173236#1_0" arrivalPos="0.20" arrivalSpeed="13.71" duration="134.00" routeLength="989.64" waitingTime="0.00" waitingCount="0" stopTime="0.00" timeLoss="14.73" rerouteNo="1" devices="tripinfo_veh56 routing_veh56 fcd_veh56" vType="veh_passenger" speedFactor="0.90" vaporized=""/>
    <tripinfo id="veh57" depart="437.00" departLane="1294818348_0" departPos="5.10" departSpeed="0.00" departDelay="0.98" arrival="563.00" arrivalLane="541359186#1_0" arrivalPos="40.35" arrivalSpeed="11.63" duration="126.00" routeLength="1078.14" waitingTime="0.00" waitingCount="0" stopTime="0.00" timeLoss="25.73" rerouteNo="1" devices="tripinfo_veh57 routing_veh57 fcd_veh57" vType="veh_passenger" speedFactor="1.14" vaporized=""/>
    <tripinfo id="veh63" depart="482.00" departLane="8170204_0" departPos="5.10" departSpeed="0.00" departDelay="0.08" arrival="563.00" arrivalLane="8875439_0" arrivalPos="54.54" arrivalSpeed="7.86" duration="81.00" routeLength="583.24" waitingTime="0.00" waitingCount="0" stopTime="0.00" timeLoss="9.32" rerouteNo="1" devices="tripinfo_veh63 routing_veh63 fcd_veh63" vType="veh_passenger" speedFactor="0.99" vaporized=""/>
    <tripinfo id="veh52" depart="398.00" departLane="674173236#0_0" departPos="5.10" departSpeed="0.00" departDelay="0.23" arrival="565.00" arrivalLane="-278787276_0" arrivalPos="85.34" arrivalSpeed="8.34" duration="167.00" routeLength="1279.29" waitingTime="5.00" waitingCount="1" stopTime="0.00" timeLoss="29.46" rerouteNo="1" devices="tripinfo_veh52 routing_veh52 fcd_veh52" vType="veh_passenger" speedFactor="1.02" vaporized=""/>
    <tripinfo id="veh59" depart="452.00" departLane="8597107#2_0" departPos="5.10" departSpeed="0.00" departDelay="0.68" arrival="567.00" arrivalLane="674173236#1_0" arrivalPos="0.20" arrivalSpeed="15.40" duration="115.00" routeLength="918.68" waitingTime="0.00" waitingCount="0" stopTime="0.00" timeLoss="13.19" rerouteNo="1" devices="tripinfo_veh59 routing_veh59 fcd_veh59" vType="veh_passenger" speedFactor="0.97" vaporized=""/>
    <tripinfo id="veh64" depart="490.00" departLane="8597107#1_0" departPos="5.10" departSpeed="0.00" departDelay="0.44" arrival="572.00" arrivalLane="137209465_0" arrivalPos="0.20" arrivalSpeed="4.62" duration="82.00" routeLength="525.76" waitingTime="1.00" waitingCount="1" stopTime="0.00" timeLoss="13.41" rerouteNo="1" devices="tripinfo_veh64 routing_veh64 fcd_veh64" vType="veh_passenger" speedFactor="0.94" vaporized=""/>
    <tripinfo id="veh65" depart="498.00" departLane="137209469_0" departPos="0.20" departSpeed="0.00" departDelay="0.79" arrival="574.00" arrivalLane="201237460#1_0" arrivalPos="81.42" arrivalSpeed="16.61" duration="76.00" routeLength="530.06" waitingTime="12.00" waitingCount="1" stopTime="0.00" timeLoss="22.00" rerouteNo="1" devices="tripinfo_veh65 routing_veh65 fcd_veh65" vType="veh_passenger" speedFactor="0.88" vaporized=""/>
    <tripinfo id="veh55" depart="421.00" departLane="1294818344_0" departPos="5.10" departSpeed="0.00" departDelay="0.28" arrival="579.00" arrivalLane="-541361416_0" arrivalPos="16.77" arrivalSpeed="13.73" duration="158.00" routeLength="1274.03" waitingTime="0.00" waitingCount="0" stopTime="0.00" timeLoss="19.52" rerouteNo="1" devices="tripinfo_veh55 routing_veh55 fcd_veh55" vType="veh_passenger" speedFactor="1.00" vaporized=""/>
    <tripinfo id="veh58" depart="444.00" departLane="137308922#0_0" departPos="5.10" departSpeed="0.00" departDelay="0.33" arrival="588.00" arrivalLane="-1294818348_0" arrivalPos="97.84" arrivalSpeed="8.03" duration="144.00" routeLength="1264.01" waitingTime="0.00" waitingCount="0" stopTime="0.00" timeLoss="15.71" rerouteNo="1" devices="tripinfo_veh58 routing_veh58 fcd_veh58" vType="veh_passenger" speedFactor="1.02" vaporized=""/>
    <tripinfo id="veh60" depart="459.00" departLane="759535259#0_0" departPos="5.10" departSpeed="21.04" departDelay="0.03" arrival="588.00" arrivalLane="-16465959#1_0" arrivalPos="39.06" arrivalSpeed="8.83" duration="129.00" routeLength="1239.37" waitingTime="0.00" waitingCount="0" stopTime="0.00" timeLoss="13.76" rerouteNo="1" devices="tripinfo_veh60 routing_veh60 fcd_veh60" vType="veh_passenger" speedFactor="1.08" vaporized=""/>
    <tripinfo id="veh62" depart="475.00" departLane="-8625131#1_0" departPos="5.10" departSpeed="0.00" departDelay="0.73" arrival="594.00" arrivalLane="8625233_0" arrivalPos="10.48" arrivalSpeed="7.68" duration="119.00" routeLength="935.00" waitingTime="0.00" waitingCount="0" stopTime="0.00" timeLoss="13.36" rerouteNo="1" devices="tripinfo_veh62 routing_veh62 fcd_veh62" vType="veh_passenger" speedFactor="1.02" vaporized=""/>