<?xml version="1.0" encoding="UTF-8"?>

<!-- generated on 2025-11-08 15:30:22 by Eclipse SUMO sumo Version 1.24.0
<sumoConfiguration xmlns:xsi="http://www.w3.org/2001/XMLSchema-instance" xsi:noNamespaceSchemaLocation="http://sumo.dlr.de/xsd/sumoConfiguration.xsd">

    <input>
        <net-file value="osm.net.xml.gz"/>
        <route-files value="osm_pt.rou.xml,osm.passenger.trips.xml"/>
        <additional-files value="osm.poly.xml.gz,osm_stops.add.xml,output.add.xml"/>
    </input>

    <output>
        <fcd-output value="sumoTrace.xml"/>
        <tripinfo-output value="tripinfos.xml"/>
        <stop-output value="stopinfos.xml"/>
        <statistic-output value="stats.xml"/>
    </output>

    <processing>
        <ignore-route-errors value="true"/>
        <tls.actuated.jam-threshold value="30"/>
    </processing>

    <routing>
        <device.rerouting.adaptation-steps value="18"/>
        <device.rerouting.adaptation-interval value="10"/>
    </routing>

    <report>
        <verbose value="true"/>
        <duration-log.statistics value="true"/>
        <no-step-log value="true"/>
    </report>

    <gui_only>
        <gui-settings-file value="osm.view.xml"/>
    </gui_only>

</sumoConfiguration>
-->

<meandata xmlns:xsi="http://www.w3.org/2001/XMLSchema-instance" xsi:noNamespaceSchemaLocation="http://sumo.dlr.de/xsd/meandata_file.xsd">
    <interval begin="0.00" end="3600.00" id="wizard_example">
        <edge id="-1098998580" sampledSeconds="0.00" departed="0" arrived="0" entered="0" left="0" laneChangedFrom="0" laneChangedTo="0"/>
        <edge id="-1098998581#0" sampledSeconds="0.00" departed="0" arrived="0" entered="0" left="0" laneChangedFrom="0" laneChangedTo="0"/>
        <edge id="-1098998581#1" sampledSeconds="0.00" departed="0" arrived="0" entered="0" left="0" laneChangedFrom="0" laneChangedTo="0"/>
        <edge id="-1098998582" sampledSeconds="0.00" departed="0" arrived="0" entered="0" left="0" laneChangedFrom="0" laneChangedTo="0"/>
        <edge id="-1117351894" sampledSeconds="0.00" departed="0" arrived="0" entered="0" left="0" laneChangedFrom="0" laneChangedTo="0"/>
        <edge id="-1294818340#0" sampledSeconds="142.68" traveltime="1.84" overlapTraveltime="2.84" density="4.03" laneDensity="4.03" occupancy="1.41" waitingTime="0.00" timeLoss="39.21" speed="5.23" speedRelative="0.63" departed="7" arrived="3" entered="46" left="50" laneChangedFrom="0" laneChangedTo="0"/>
        <edge id="-1294818340#1" sampledSeconds="498.88" traveltime="8.77" overlapTraveltime="9.47" density="2.15" laneDensity="2.15" occupancy="1.00" waitingTime="0.00" timeLoss="52.44" speed="7.33" speedRelative="0.88" departed="2" arrived="7" entered="51" left="46" laneChangedFrom="0" laneChangedTo="0"/>
        <edge id="-1294818341" sampledSeconds="333.09" traveltime="6.39" overlapTraveltime="7.26" density="2.14" laneDensity="2.14" occupancy="0.96" waitingTime="0.00" timeLoss="51.62" speed="6.64" speedRelative="0.80" departed="8" arrived="8" entered="39" left="39" laneChangedFrom="0" laneChangedTo="0"/>
        <edge id="-1294818342#0" sampledSeconds="325.72" traveltime="20.98" overlapTraveltime="21.95" density="0.61" laneDensity="0.61" occupancy="0.29" waitingTime="0.00" timeLoss="37.81" speed="7.01" speedRelative="0.84" departed="4" arrived="1" entered="11" left="14" laneChangedFrom="0" laneChangedTo="0"/>
        <edge id="-1294818342#2" sampledSeconds="45.87" traveltime="3.33" overlapTraveltime="4.02" density="0.65" laneDensity="0.65" occupancy="0.28" waitingTime="0.00" timeLoss="10.87" speed="6.12" speedRelative="0.73" departed="6" arrived="2" entered="7" left="11" laneChangedFrom="0" laneChangedTo="0"/>
        <edge id="-1294818342#3" sampledSeconds="156.97" traveltime="7.37" overlapTraveltime="8.63" density="0.90" laneDensity="0.90" occupancy="0.41" waitingTime="2.00" timeLoss="29.90" speed="6.20" speedRelative="0.74" departed="6" arrived="5" entered="13" left="14" laneChangedFrom="0" laneChangedTo="0"/>
        <edge id="-1294818343#0" sampledSeconds="209.09" traveltime="8.42" overlapTraveltime="9.20" density="0.97" laneDensity="0.97" occupancy="0.45" waitingTime="0.00" timeLoss="27.27" speed="7.07" speedRelative="0.85" departed="3" arrived="1" entered="20" left="22" laneChangedFrom="0" laneChangedTo="0"/>
        <edge id="-1294818343#1" sampledSeconds="50.86" traveltime="1.68" overlapTraveltime="2.49" density="1.59" laneDensity="1.59" occupancy="0.57" waitingTime="0.00" timeLoss="16.35" speed="5.57" speedRelative="0.67" departed="9" arrived="4" entered="15" left="20" laneChangedFrom="0" laneChangedTo="0"/>
        <edge id="-1294818344" sampledSeconds="219.65" traveltime="9.87" overlapTraveltime="10.61" density="0.85" laneDensity="0.85" occupancy="0.40" waitingTime="1.00" timeLoss="24.54" speed="7.20" speedRelative="0.86" departed="0" arrived="11" entered="21" left="10" laneChangedFrom="0" laneChangedTo="0"/>
        <edge id="-1294818345#0" sampledSeconds="122.95" traveltime="3.49" overlapTraveltime="4.17" density="1.42" laneDensity="1.42" occupancy="0.59" waitingTime="0.00" timeLoss="16.09" speed="6.96" speedRelative="0.84" departed="3" arrived="4" entered="27" left="26" laneChangedFrom="0" laneChangedTo="0"/>
        <edge id="-1294818345#1" sampledSeconds="32.10" traveltime="0.17" overlapTraveltime="1.08" density="10.49" laneDensity="10.49" occupancy="0.77" waitingTime="0.00" timeLoss="10.48" speed="5.40" speedRelative="0.65" departed="2" arrived="4" entered="29" left="27" laneChangedFrom="0" laneChangedTo="0"/>
        <edge id="-1294818346#0" sampledSeconds="33.12" traveltime="0.25" overlapTraveltime="1.26" density="6.05" laneDensity="6.05" occupancy="0.74" waitingTime="0.00" timeLoss="7.05" speed="5.18" speedRelative="0.62" departed="4" arrived="3" entered="24" left="25" laneChangedFrom="0" laneChangedTo="0"/>
        <edge id="-1294818346#1" sampledSeconds="246.21" traveltime="7.15" overlapTraveltime="7.90" density="1.42" laneDensity="1.42" occupancy="0.65" waitingTime="0.00" timeLoss="37.02" speed="6.74" speedRelative="0.81" departed="7" arrived="8" entered="25" left="24" laneChangedFrom="0" laneChangedTo="0"/>
        <edge id="-1294818346#2" sampledSeconds="73.97" traveltime="1.85" overlapTraveltime="2.57" density="1.73" laneDensity="1.73" occupancy="0.64" waitingTime="0.00" timeLoss="12.75" speed="6.57" speedRelative="0.79" departed="5" arrived="6" entered="26" left="25" laneChangedFrom="0" laneChangedTo="0"/>
        <edge id="-1294818347" sampledSeconds="0.00" departed="0" arrived="0" entered="0" left="0" laneChangedFrom="0" laneChangedTo="0"/>
        <edge id="-1294818348" sampledSeconds="729.56" traveltime="13.45" overlapTraveltime="14.39" density="2.07" laneDensity="2.07" occupancy="0.98" waitingTime="0.00" timeLoss="87.55" speed="7.15" speedRelative="0.86" departed="6" arrived="1" entered="45" left="50" laneChangedFrom="0" laneChangedTo="0"/>
        <edge id="-1294818349#0" sampledSeconds="364.54" traveltime="2.16" overlapTraveltime="3.02" density="8.33" laneDensity="8.33" occupancy="3.13" waitingTime="25.00" timeLoss="102.52" speed="5.68" speedRelative="0.68" departed="4" arrived="1" entered="118" left="121" laneChangedFrom="0" laneChangedTo="0"/>
        <edge id="-1294818349#1" sampledSeconds="807.01" traveltime="5.53" overlapTraveltime="6.40" density="5.64" laneDensity="5.64" occupancy="2.51" waitingTime="20.00" timeLoss="124.89" speed="6.99" speedRelative="0.84" departed="6" arrived="5" entered="121" left="122" laneChangedFrom="0" laneChangedTo="0"/>
        <edge id="-1294818349#2" sampledSeconds="785.39" traveltime="5.21" overlapTraveltime="6.08" density="5.81" laneDensity="5.81" occupancy="2.55" waitingTime="41.00" timeLoss="122.28" speed="6.99" speedRelative="0.84" departed="3" arrived="5" entered="127" left="124" laneChangedFrom="0" laneChangedTo="0"/>
        <edge id="-1294818350#0" sampledSeconds="205.97" traveltime="6.26" overlapTraveltime="7.26" density="1.40" laneDensity="1.40" occupancy="0.63" waitingTime="0.00" timeLoss="44.06" speed="6.30" speedRelative="0.76" departed="10" arrived="4" entered="20" left="25" laneChangedFrom="0" laneChangedTo="0"/>
        <edge id="-1294818350#1" sampledSeconds="353.86" traveltime="9.47" overlapTraveltime="10.25" density="1.41" laneDensity="1.41" occupancy="0.66" waitingTime="0.00" timeLoss="41.59" speed="7.29" speedRelative="0.87" departed="4" arrived="5" entered="31" left="30" laneChangedFrom="0" laneChangedTo="0"/>
        <edge id="-1294818351" sampledSeconds="824.86" traveltime="10.04" overlapTraveltime="10.91" density="3.22" laneDensity="3.22" occupancy="1.50" waitingTime="14.00" timeLoss="125.89" speed="6.98" speedRelative="0.84" departed="5" arrived="6" entered="71" left="70" laneChangedFrom="0" laneChangedTo="0"/>
        <edge id="-1294818353" sampledSeconds="681.72" traveltime="1.69" overlapTraveltime="2.37" density="13.37" laneDensity="13.37" occupancy="4.94" waitingTime="0.00" timeLoss="111.97" speed="8.08" speedRelative="0.73" departed="5" arrived="2" entered="284" left="287" laneChangedFrom="0" laneChangedTo="0"/>
        <edge id="-1294818356#0" sampledSeconds="850.85" traveltime="18.52" overlapTraveltime="19.44" density="1.73" laneDensity="1.73" occupancy="0.83" waitingTime="3.00" timeLoss="98.22" speed="7.30" speedRelative="0.88" departed="5" arrived="4" entered="39" left="40" laneChangedFrom="0" laneChangedTo="0"/>
        <edge id="-1294818356#1" sampledSeconds="69.33" traveltime="1.73" overlapTraveltime="2.37" density="1.64" laneDensity="1.64" occupancy="0.62" waitingTime="0.00" timeLoss="10.63" speed="7.06" speedRelative="0.85" departed="32" arrived="0" entered="7" left="39" laneChangedFrom="0" laneChangedTo="0"/>
        <edge id="-1294818357#1" sampledSeconds="575.93" traveltime="6.45" overlapTraveltime="7.19" density="3.60" laneDensity="3.60" occupancy="1.63" waitingTime="18.00" timeLoss="110.03" speed="6.87" speedRelative="0.83" departed="8" arrived="3" entered="73" left="78" laneChangedFrom="0" laneChangedTo="0"/>
        <edge id="-1294818357#2" sampledSeconds="200.22" traveltime="5.04" overlapTraveltime="5.69" density="1.53" laneDensity="1.53" occupancy="0.68" waitingTime="0.00" timeLoss="27.48" speed="7.26" speedRelative="0.87" departed="6" arrived="3" entered="30" left="33" laneChangedFrom="0" laneChangedTo="0"/>
        <edge id="-1294818358#0" sampledSeconds="194.20" traveltime="2.12" overlapTraveltime="2.83" density="3.64" laneDensity="3.64" occupancy="1.38" waitingTime="4.00" timeLoss="27.34" speed="6.99" speedRelative="0.84" departed="0" arrived="6" entered="69" left="63" laneChangedFrom="0" laneChangedTo="0"/>
        <edge id="-1294818358#1" sampledSeconds="1073.14" traveltime="11.16" overlapTraveltime="11.97" density="3.86" laneDensity="3.86" occupancy="1.81" waitingTime="15.00" timeLoss="168.31" speed="6.87" speedRelative="0.83" departed="3" arrived="7" entered="87" left="83" laneChangedFrom="0" laneChangedTo="0"/>
        <edge id="-1309210016" sampledSeconds="937.77" traveltime="2.56" overlapTraveltime="3.24" density="13.82" laneDensity="13.82" occupancy="5.49" waitingTime="1.00" timeLoss="105.36" speed="7.36" speedRelative="0.88" departed="6" arrived="6" entered="285" left="285" laneChangedFrom="0" laneChangedTo="0"/>
        <edge id="-1352270016" sampledSeconds="0.00" departed="0" arrived="0" entered="0" left="0" laneChangedFrom="0" laneChangedTo="0"/>
        <edge id="-1356343632" sampledSeconds="256.81" traveltime="7.71" overlapTraveltime="8.36" density="1.23" laneDensity="1.23" occupancy="0.57" waitingTime="0.00" timeLoss="24.16" speed="7.53" speedRelative="0.90" departed="2" arrived="7" entered="29" left="24" laneChangedFrom="0" laneChangedTo="0"/>
        <edge id="-1356467938" sampledSeconds="1418.38" traveltime="15.84" overlapTraveltime="16.96" density="4.18" laneDensity="4.18" occupancy="1.99" waitingTime="184.00" timeLoss="410.57" speed="5.85" speedRelative="0.70" departed="5" arrived="5" entered="79" left="79" laneChangedFrom="0" laneChangedTo="0"/>
        <edge id="-1356467939" sampledSeconds="191.92" traveltime="15.17" overlapTraveltime="16.17" density="0.53" laneDensity="0.53" occupancy="0.25" waitingTime="9.00" timeLoss="37.06" speed="6.51" speedRelative="0.78" departed="2" arrived="2" entered="10" left="10" laneChangedFrom="0" laneChangedTo="0"/>
        <edge id="-1363295595" sampledSeconds="0.00" departed="0" arrived="0" entered="0" left="0" laneChangedFrom="0" laneChangedTo="0"/>
        <edge id="-1363299425#0" sampledSeconds="0.00" departed="0" arrived="0" entered="0" left="0" laneChangedFrom="0" laneChangedTo="0"/>
        <edge id="-1363299425#1" sampledSeconds="0.00" departed="0" arrived="0" entered="0" left="0" laneChangedFrom="0" laneChangedTo="0"/>
        <edge id="-1363299425#2" sampledSeconds="0.00" departed="0" arrived="0" entered="0" left="0" laneChangedFrom="0" laneChangedTo="0"/>
        <edge id="-136473724" sampledSeconds="202.60" traveltime="5.56" overlapTraveltime="6.34" density="1.45" laneDensity="1.45" occupancy="0.65" waitingTime="0.00" timeLoss="32.03" speed="6.92" speedRelative="0.83" departed="7" arrived="8" entered="26" left="25" laneChangedFrom="0" laneChangedTo="0"/>
        <edge id="-136484682" sampledSeconds="0.00" departed="0" arrived="0" entered="0" left="0" laneChangedFrom="0" laneChangedTo="0"/>
        <edge id="-136484722" sampledSeconds="0.00" departed="0" arrived="0" entered="0" left="0" laneChangedFrom="0" laneChangedTo="0"/>
        <edge id="-136486216" sampledSeconds="0.00" departed="0" arrived="0" entered="0" left="0" laneChangedFrom="0" laneChangedTo="0"/>
        <edge id="-136489118" sampledSeconds="0.00" departed="0" arrived="0" entered="0" left="0" laneChangedFrom="0" laneChangedTo="0"/>
        <edge id="-136489164#0" sampledSeconds="0.00" departed="0" arrived="0" entered="0" left="0" laneChangedFrom="0" laneChangedTo="0"/>
        <edge id="-136489164#1" sampledSeconds="0.00" departed="0" arrived="0" entered="0" left="0" laneChangedFrom="0" laneChangedTo="0"/>
        <edge id="-136809770" sampledSeconds="0.00" departed="0" arrived="0" entered="0" left="0" laneChangedFrom="0" laneChangedTo="0"/>
        <edge id="-136813314" sampledSeconds="0.00" departed="0" arrived="0" entered="0" left="0" laneChangedFrom="0" laneChangedTo="0"/>
        <edge id="-136813434" sampledSeconds="0.00" departed="0" arrived="0" entered="0" left="0" laneChangedFrom="0" laneChangedTo="0"/>
        <edge id="-136813435" sampledSeconds="0.00" departed="0" arrived="0" entered="0" left="0" laneChangedFrom="0" laneChangedTo="0"/>
        <edge id="-136813438" sampledSeconds="0.00" departed="0" arrived="0" entered="0" left="0" laneChangedFrom="0" laneChangedTo="0"/>
        <edge id="-136813439#0" sampledSeconds="0.00" departed="0" arrived="0" entered="0" left="0" laneChangedFrom="0" laneChangedTo="0"/>
        <edge id="-136813439#1" sampledSeconds="0.00" departed="0" arrived="0" entered="0" left="0" laneChangedFrom="0" laneChangedTo="0"/>
        <edge id="-136813440#0" sampledSeconds="0.00" departed="0" arrived="0" entered="0" left="0" laneChangedFrom="0" laneChangedTo="0"/>
        <edge id="-136813440#1" sampledSeconds="0.00" departed="0" arrived="0" entered="0" left="0" laneChangedFrom="0" laneChangedTo="0"/>
        <edge id="-136820740" sampledSeconds="0.00" departed="0" arrived="0" entered="0" left="0" laneChangedFrom="0" laneChangedTo="0"/>
        <edge id="-136964838#0" sampledSeconds="0.00" departed="0" arrived="0" entered="0" left="0" laneChangedFrom="0" laneChangedTo="0"/>
        <edge id="-136964838#1" sampledSeconds="0.00" departed="0" arrived="0" entered="0" left="0" laneChangedFrom="0" laneChangedTo="0"/>
        <edge id="-136964838#2" sampledSeconds="0.00" departed="0" arrived="0" entered="0" left="0" laneChangedFrom="0" laneChangedTo="0"/>
        <edge id="-137188785#0" sampledSeconds="0.00" departed="0" arrived="0" entered="0" left="0" laneChangedFrom="0" laneChangedTo="0"/>
        <edge id="-137188785#1" sampledSeconds="0.00" departed="0" arrived="0" entered="0" left="0" laneChangedFrom="0" laneChangedTo="0"/>
        <edge id="-137191882" sampledSeconds="1132.17" traveltime="5.65" overlapTraveltime="6.16" density="5.63" laneDensity="5.63" occupancy="2.58" waitingTime="0.00" timeLoss="115.11" speed="9.88" speedRelative="0.89" departed="7" arrived="5" entered="178" left="179" laneChangedFrom="0" laneChangedTo="0"/>
        <edge id="-137211063#0" sampledSeconds="0.00" departed="0" arrived="0" entered="0" left="0" laneChangedFrom="0" laneChangedTo="0"/>
        <edge id="-137211063#1" sampledSeconds="0.00" departed="0" arrived="0" entered="0" left="0" laneChangedFrom="0" laneChangedTo="0"/>
        <edge id="-137218785" sampledSeconds="0.00" departed="0" arrived="0" entered="0" left="0" laneChangedFrom="0" laneChangedTo="0"/>
        <edge id="-137306770#0" sampledSeconds="0.00" departed="0" arrived="0" entered="0" left="0" laneChangedFrom="0" laneChangedTo="0"/>
        <edge id="-137306770#1" sampledSeconds="0.00" departed="0" arrived="0" entered="0" left="0" laneChangedFrom="0" laneChangedTo="0"/>
        <edge id="-137306771#0" sampledSeconds="0.00" departed="0" arrived="0" entered="0" left="0" laneChangedFrom="0" laneChangedTo="0"/>
        <edge id="-137306771#1" sampledSeconds="0.00" departed="0" arrived="0" entered="0" left="0" laneChangedFrom="0" laneChangedTo="0"/>
        <edge id="-137306771#2" sampledSeconds="0.00" departed="0" arrived="0" entered="0" left="0" laneChangedFrom="0" laneChangedTo="0"/>
        <edge id="-137493647" sampledSeconds="0.00" departed="0" arrived="0" entered="0" left="0" laneChangedFrom="0" laneChangedTo="0"/>
        <edge id="-137626559#0" sampledSeconds="0.00" departed="0" arrived="0" entered="0" left="0" laneChangedFrom="0" laneChangedTo="0"/>
        <edge id="-137626559#1" sampledSeconds="0.00" departed="0" arrived="0" entered="0" left="0" laneChangedFrom="0" laneChangedTo="0"/>
        <edge id="-137626559#2" sampledSeconds="0.00" departed="0" arrived="0" entered="0" left="0" laneChangedFrom="0" laneChangedTo="0"/>
        <edge id="-137626559#3" sampledSeconds="0.00" departed="0" arrived="0" entered="0" left="0" laneChangedFrom="0" laneChangedTo="0"/>
        <edge id="-137626858#0" sampledSeconds="0.00" departed="0" arrived="0" entered="0" left="0" laneChangedFrom="0" laneChangedTo="0"/>
        <edge id="-137626858#1" sampledSeconds="0.00" departed="0" arrived="0" entered="0" left="0" laneChangedFrom="0" laneChangedTo="0"/>
        <edge id="-137626858#2" sampledSeconds="0.00" departed="0" arrived="0" entered="0" left="0" laneChangedFrom="0" laneChangedTo="0"/>
        <edge id="-137626858#3" sampledSeconds="0.00" departed="0" arrived="0" entered="0" left="0" laneChangedFrom="0" laneChangedTo="0"/>
        <edge id="-137626858#4" sampledSeconds="0.00" departed="0" arrived="0" entered="0" left="0" laneChangedFrom="0" laneChangedTo="0"/>
        <edge id="-137626859#0" sampledSeconds="0.00" departed="0" arrived="0" entered="0" left="0" laneChangedFrom="0" laneChangedTo="0"/>
        <edge id="-137626859#1" sampledSeconds="0.00" departed="0" arrived="0" entered="0" left="0" laneChangedFrom="0" laneChangedTo="0"/>
        <edge id="-137626860" sampledSeconds="0.00" departed="0" arrived="0" entered="0" left="0" laneChangedFrom="0" laneChangedTo="0"/>
        <edge id="-137626861" sampledSeconds="0.00" departed="0" arrived="0" entered="0" left="0" laneChangedFrom="0" laneChangedTo="0"/>
        <edge id="-137804834#0" sampledSeconds="0.00" departed="0" arrived="0" entered="0" left="0" laneChangedFrom="0" laneChangedTo="0"/>
        <edge id="-137804834#1" sampledSeconds="0.00" departed="0" arrived="0" entered="0" left="0" laneChangedFrom="0" laneChangedTo="0"/>
        <edge id="-137822838#0" sampledSeconds="0.00" departed="0" arrived="0" entered="0" left="0" laneChangedFrom="0" laneChangedTo="0"/>
        <edge id="-137822838#1" sampledSeconds="0.00" departed="0" arrived="0" entered="0" left="0" laneChangedFrom="0" laneChangedTo="0"/>
        <edge id="-137823548" sampledSeconds="0.00" departed="0" arrived="0" entered="0" left="0" laneChangedFrom="0" laneChangedTo="0"/>
        <edge id="-137823551" sampledSeconds="0.00" departed="0" arrived="0" entered="0" left="0" laneChangedFrom="0" laneChangedTo="0"/>
        <edge id="-137823813" sampledSeconds="0.00" departed="0" arrived="0" entered="0" left="0" laneChangedFrom="0" laneChangedTo="0"/>
        <edge id="-137823989#0" sampledSeconds="0.00" departed="0" arrived="0" entered="0" left="0" laneChangedFrom="0" laneChangedTo="0"/>
        <edge id="-137823989#1" sampledSeconds="0.00" departed="0" arrived="0" entered="0" left="0" laneChangedFrom="0" laneChangedTo="0"/>
        <edge id="-137824393" sampledSeconds="0.00" departed="0" arrived="0" entered="0" left="0" laneChangedFrom="0" laneChangedTo="0"/>
        <edge id="-137824488" sampledSeconds="0.00" departed="0" arrived="0" entered="0" left="0" laneChangedFrom="0" laneChangedTo="0"/>
        <edge id="-137825151#0" sampledSeconds="0.00" departed="0" arrived="0" entered="0" left="0" laneChangedFrom="0" laneChangedTo="0"/>
        <edge id="-137825151#1" sampledSeconds="0.00" departed="0" arrived="0" entered="0" left="0" laneChangedFrom="0" laneChangedTo="0"/>
        <edge id="-137825151#2" sampledSeconds="0.00" departed="0" arrived="0" entered="0" left="0" laneChangedFrom="0" laneChangedTo="0"/>
        <edge id="-137825152#0" sampledSeconds="0.00" departed="0" arrived="0" entered="0" left="0" laneChangedFrom="0" laneChangedTo="0"/>
        <edge id="-137825152#1" sampledSeconds="0.00" departed="0" arrived="0" entered="0" left="0" laneChangedFrom="0" laneChangedTo="0"/>
        <edge id="-137825152#2" sampledSeconds="0.00" departed="0" arrived="0" entered="0" left="0" laneChangedFrom="0" laneChangedTo="0"/>
        <edge id="-137825823" sampledSeconds="0.00" departed="0" arrived="0" entered="0" left="0" laneChangedFrom="0" laneChangedTo="0"/>
        <edge id="-137826638" sampledSeconds="0.00" departed="0" arrived="0" entered="0" left="0" laneChangedFrom="0" laneChangedTo="0"/>
        <edge id="-137826735" sampledSeconds="0.00" departed="0" arrived="0" entered="0" left="0" laneChangedFrom="0" laneChangedTo="0"/>
        <edge id="-137827001" sampledSeconds="0.00" departed="0" arrived="0" entered="0" left="0" laneChangedFrom="0" laneChangedTo="0"/>
        <edge id="-137827002" sampledSeconds="0.00" departed="0" arrived="0" entered="0" left="0" laneChangedFrom="0" laneChangedTo="0"/>
        <edge id="-137827003" sampledSeconds="0.00" departed="0" arrived="0" entered="0" left="0" laneChangedFrom="0" laneChangedTo="0"/>
        <edge id="-137827051" sampledSeconds="0.00" departed="0" arrived="0" entered="0" left="0" laneChangedFrom="0" laneChangedTo="0"/>
        <edge id="-137827175" sampledSeconds="0.00" departed="0" arrived="0" entered="0" left="0" laneChangedFrom="0" laneChangedTo="0"/>
        <edge id="-137827260" sampledSeconds="0.00" departed="0" arrived="0" entered="0" left="0" laneChangedFrom="0" laneChangedTo="0"/>
        <edge id="-137830193" sampledSeconds="0.00" departed="0" arrived="0" entered="0" left="0" laneChangedFrom="0" laneChangedTo="0"/>
        <edge id="-14340744" sampledSeconds="2089.14" traveltime="21.52" overlapTraveltime="22.03" density="2.64" laneDensity="2.64" occupancy="1.29" waitingTime="4.00" timeLoss="153.44" speed="10.22" speedRelative="0.92" departed="5" arrived="5" entered="90" left="90" laneChangedFrom="0" laneChangedTo="0"/>
        <edge id="-151406472" sampledSeconds="0.00" departed="0" arrived="0" entered="0" left="0" laneChangedFrom="0" laneChangedTo="0"/>
        <edge id="-151406814#0" sampledSeconds="0.00" departed="0" arrived="0" entered="0" left="0" laneChangedFrom="0" laneChangedTo="0"/>
        <edge id="-151406814#1" sampledSeconds="0.00" departed="0" arrived="0" entered="0" left="0" laneChangedFrom="0" laneChangedTo="0"/>
        <edge id="-151406814#2" sampledSeconds="0.00" departed="0" arrived="0" entered="0" left="0" laneChangedFrom="0" laneChangedTo="0"/>
        <edge id="-151406814#3" sampledSeconds="0.00" departed="0" arrived="0" entered="0" left="0" laneChangedFrom="0" laneChangedTo="0"/>
        <edge id="-151406814#4" sampledSeconds="0.00" departed="0" arrived="0" entered="0" left="0" laneChangedFrom="0" laneChangedTo="0"/>
        <edge id="-151406817#0" sampledSeconds="0.00" departed="0" arrived="0" entered="0" left="0" laneChangedFrom="0" laneChangedTo="0"/>
        <edge id="-151406817#1" sampledSeconds="0.00" departed="0" arrived="0" entered="0" left="0" laneChangedFrom="0" laneChangedTo="0"/>
        <edge id="-151406818#0" sampledSeconds="0.00" departed="0" arrived="0" entered="0" left="0" laneChangedFrom="0" laneChangedTo="0"/>
        <edge id="-151406818#1" sampledSeconds="0.00" departed="0" arrived="0" entered="0" left="0" laneChangedFrom="0" laneChangedTo="0"/>
        <edge id="-151406818#2" sampledSeconds="0.00" departed="0" arrived="0" entered="0" left="0" laneChangedFrom="0" laneChangedTo="0"/>
        <edge id="-151406910" sampledSeconds="0.00" departed="0" arrived="0" entered="0" left="0" laneChangedFrom="0" laneChangedTo="0"/>
        <edge id="-153102313#0" sampledSeconds="0.00" departed="0" arrived="0" entered="0" left="0" laneChangedFrom="0" laneChangedTo="0"/>
        <edge id="-153102313#1" sampledSeconds="0.00" departed="0" arrived="0" entered="0" left="0" laneChangedFrom="0" laneChangedTo="0"/>
        <edge id="-153102313#2" sampledSeconds="0.00" departed="0" arrived="0" entered="0" left="0" laneChangedFrom="0" laneChangedTo="0"/>
        <edge id="-16465950#0" sampledSeconds="188.22" traveltime="3.49" overlapTraveltime="4.41" density="2.42" laneDensity="2.42" occupancy="1.00" waitingTime="1.00" timeLoss="43.15" speed="6.03" speedRelative="0.72" departed="6" arrived="5" entered="38" left="39" laneChangedFrom="0" laneChangedTo="0"/>
        <edge id="-16465950#1" sampledSeconds="382.14" traveltime="7.88" overlapTraveltime="8.58" density="1.90" laneDensity="1.90" occupancy="0.88" waitingTime="0.00" timeLoss="51.82" speed="7.09" speedRelative="0.85" departed="4" arrived="7" entered="41" left="38" laneChangedFrom="0" laneChangedTo="0"/>
        <edge id="-16465950#2" sampledSeconds="865.47" traveltime="9.35" overlapTraveltime="10.12" density="3.63" laneDensity="3.63" occupancy="1.69" waitingTime="8.00" timeLoss="123.71" speed="7.04" speedRelative="0.84" departed="6" arrived="3" entered="80" left="83" laneChangedFrom="0" laneChangedTo="0"/>
        <edge id="-16465950#3" sampledSeconds="939.77" traveltime="8.80" overlapTraveltime="9.55" density="4.11" laneDensity="4.11" occupancy="1.91" waitingTime="0.00" timeLoss="118.57" speed="7.18" speedRelative="0.86" departed="6" arrived="6" entered="93" left="93" laneChangedFrom="0" laneChangedTo="0"/>
        <edge id="-16465952" sampledSeconds="805.87" traveltime="15.19" overlapTraveltime="16.23" density="2.16" laneDensity="2.16" occupancy="1.03" waitingTime="31.00" timeLoss="142.05" speed="6.70" speedRelative="0.80" departed="6" arrived="5" entered="44" left="45" laneChangedFrom="0" laneChangedTo="0"/>
        <edge id="-16465956#0" sampledSeconds="242.21" traveltime="5.45" overlapTraveltime="6.31" density="2.28" laneDensity="2.28" occupancy="1.00" waitingTime="32.00" timeLoss="81.91" speed="5.48" speedRelative="0.66" departed="3" arrived="4" entered="37" left="35" laneChangedFrom="0" laneChangedTo="0"/>
        <edge id="-16465956#1" sampledSeconds="77.28" traveltime="1.71" overlapTraveltime="2.39" density="1.71" laneDensity="1.71" occupancy="0.62" waitingTime="0.00" timeLoss="7.51" speed="7.34" speedRelative="0.88" departed="1" arrived="2" entered="32" left="31" laneChangedFrom="0" laneChangedTo="0"/>
        <edge id="-16465956#2" sampledSeconds="132.89" traveltime="2.83" overlapTraveltime="3.62" density="2.04" laneDensity="2.04" occupancy="0.83" waitingTime="0.00" timeLoss="25.28" speed="6.39" speedRelative="0.77" departed="8" arrived="4" entered="31" left="35" laneChangedFrom="0" laneChangedTo="0"/>
        <edge id="-16465958#0" sampledSeconds="99.88" traveltime="2.77" overlapTraveltime="3.56" density="1.60" laneDensity="1.60" occupancy="0.65" waitingTime="0.00" timeLoss="19.28" speed="6.27" speedRelative="0.75" departed="7" arrived="3" entered="23" left="27" laneChangedFrom="0" laneChangedTo="0"/>
        <edge id="-16465958#1" sampledSeconds="108.78" traveltime="2.53" overlapTraveltime="3.29" density="1.74" laneDensity="1.74" occupancy="0.70" waitingTime="0.00" timeLoss="16.22" speed="6.78" speedRelative="0.81" departed="5" arrived="9" entered="30" left="26" laneChangedFrom="0" laneChangedTo="0"/>
        <edge id="-16465958#2" sampledSeconds="100.98" traveltime="2.25" overlapTraveltime="2.96" density="1.86" laneDensity="1.86" occupancy="0.70" waitingTime="0.00" timeLoss="17.22" speed="6.78" speedRelative="0.81" departed="3" arrived="3" entered="32" left="32" laneChangedFrom="0" laneChangedTo="0"/>
        <edge id="-16465959#0" sampledSeconds="224.36" traveltime="2.97" overlapTraveltime="3.66" density="3.01" laneDensity="3.01" occupancy="1.20" waitingTime="0.00" timeLoss="30.00" speed="7.03" speedRelative="0.84" departed="1" arrived="5" entered="61" left="57" laneChangedFrom="0" laneChangedTo="0"/>
        <edge id="-16465959#1" sampledSeconds="224.25" traveltime="5.75" overlapTraveltime="6.56" density="1.59" laneDensity="1.59" occupancy="0.72" waitingTime="4.00" timeLoss="40.03" speed="6.71" speedRelative="0.81" departed="3" arrived="7" entered="32" left="28" laneChangedFrom="0" laneChangedTo="0"/>
        <edge id="-16465959#2" sampledSeconds="101.34" traveltime="2.45" overlapTraveltime="3.13" density="1.90" laneDensity="1.90" occupancy="0.77" waitingTime="0.00" timeLoss="23.25" speed="6.33" speedRelative="0.76" departed="12" arrived="4" entered="24" left="32" laneChangedFrom="0" laneChangedTo="0"/>