<?xml version="1.0" encoding="UTF-8"?>

<!-- generated on 2025-11-08 15:30:22 by Eclipse SUMO sumo Version 1.24.0
<sumoConfiguration xmlns:xsi="http://www.w3.org/2001/XMLSchema-instance" xsi:noNamespaceSchemaLocation="http://sumo.dlr.de/xsd/sumoConfiguration.xsd">

    <input>
        <net-file value="osm.net.xml.gz"/>
        <route-files value="osm_pt.rou.xml,osm.passenger.trips.xml"/>
        <additional-files value="osm.poly.xml.gz,osm_stops.add.xml,output.add.xml"/>
    </input>

    <output>
        <fcd-output value="sumoTrace.xml"/>
        <tripinfo-output value="tripinfos.xml"/>
        <stop-output value="stopinfos.xml"/>
        <statistic-output value="stats.xml"/>
    </output>

    <processing>
        <ignore-route-errors value="true"/>
        <tls.actuated.jam-threshold value="30"/>
    </processing>

    <routing>
        <device.rerouting.adaptation-steps value="18"/>
        <device.rerouting.adaptation-interval value="10"/>
    </routing>

    <report>
        <verbose value="true"/>
        <duration-log.statistics value="true"/>
        <no-step-log value="true"/>
    </report>

    <gui_only>
        <gui-settings-file value="osm.view.xml"/>
    </gui_only>

</sumoConfiguration>
-->

<tripinfos xmlns:xsi="http://www.w3.org/2001/XMLSchema-instance" xsi:noNamespaceSchemaLocation="http://sumo.dlr.de/xsd/tripinfo_file.xsd">
    <tripinfo id="veh11" depart="29.00" departLane="674173236#0_0" departPos="5.10" departSpeed="0.00" departDelay="0.08" arrival="53.00" arrivalLane="201237460#1_0" arrivalPos="81.42" arrivalSpeed="19.50" duration="24.00" routeLength="336.02" waitingTime="0.00" waitingCount="0" stopTime="0.00" timeLoss="4.77" rerouteNo="1" devices="tripinfo_veh11 routing_veh11 fcd_veh11" vType="veh_passenger" speedFactor="1.03" vaporized=""/>
    <tripinfo id="veh2" depart="6.00" departLane="-16465959#1_0" departPos="5.10" departSpeed="0.00" departDelay="0.74" arrival="59.00" arrivalLane="1294818351_0" arrivalPos="71.45" arrivalSpeed="7.58" duration="53.00" routeLength="387.97" waitingTime="0.00" waitingCount="0" stopTime="0.00" timeLoss="6.15" rerouteNo="1" devices="tripinfo_veh2 routing_veh2 fcd_veh2" vType="veh_passenger" speedFactor="1.01" vaporized=""/>
    <tripinfo id="veh14" depart="37.00" departLane="759535259_0" departPos="5.10" departSpeed="18.84" departDelay="0.20" arrival="70.00" arrivalLane="14340729_0" arrivalPos="32.21" arrivalSpeed="13.84" duration="33.00" routeLength="314.25" waitingTime="2.00" waitingCount="1" stopTime="0.00" timeLoss="12.70" rerouteNo="1" devices="tripinfo_veh14 routing_veh14 fcd_veh14" vType="veh_passenger" speedFactor="0.99" vaporized=""/>
    <tripinfo id="veh0" depart="0.00" departLane="-487101504_0" departPos="5.10" departSpeed="8.83" departDelay="0.00" arrival="82.00" arrivalLane="-398190313#9_0" arrivalPos="86.02" arrivalSpeed="8.57" duration="82.00" routeLength="700.16" waitingTime="0.00" waitingCount="0" stopTime="0.00" timeLoss="5.94" rerouteNo="1" devices="tripinfo_veh0 routing_veh0 fcd_veh0" vType="veh_passenger" speedFactor="1.06" vaporized=""/>
    <tripinfo id="veh15" depart="40.00" departLane="759535259_1" departPos="5.10" departSpeed="18.02" departDelay="0.57" arrival="93.00" arrivalLane="137191883_0" arrivalPos="16.79" arrivalSpeed="9.27" duration="53.00" routeLength="457.94" waitingTime="0.00" waitingCount="0" stopTime="0.00" timeLoss="9.74" rerouteNo="1" devices="tripinfo_veh15 routing_veh15 fcd_veh15" vType="veh_passenger" speedFactor="0.93" vaporized=""/>
    <tripinfo id="veh5" depart="14.00" departLane="-16465959#2_0" departPos="5.10" departSpeed="0.00" departDelay="0.86" arrival="100.00" arrivalLane="137209469_0" arrivalPos="0.20" arrivalSpeed="3.40" duration="86.00" routeLength="481.54" waitingTime="0.00" waitingCount="0" stopTime="0.00" timeLoss="14.96" rerouteNo="1" devices="tripinfo_veh5 routing_veh5 fcd_veh5" vType="veh_passenger" speedFactor="0.83" vaporized=""/>
    <tripinfo id="veh18" depart="48.00" departLane="-1294818353_0" departPos="5.10" departSpeed="0.00" departDelay="0.68" arrival="102.00" arrivalLane="-541361416_0" arrivalPos="16.77" arrivalSpeed="12.85" duration="54.00" routeLength="472.31" waitingTime="0.00" waitingCount="0" stopTime="0.00" timeLoss="9.29" rerouteNo="1" devices="tripinfo_veh18 routing_veh18 fcd_veh18" vType="veh_passenger" speedFactor="0.94" vaporized=""/>
    <tripinfo id="veh1" depart="3.00" departLane="532086362_0" departPos="5.10" departSpeed="0.00" departDelay="0.37" arrival="103.00" arrivalLane="16465956#2_0" arrivalPos="18.12" arrivalSpeed="6.90" duration="100.00" routeLength="680.82" waitingTime="0.00" waitingCount="0" stopTime="0.00" timeLoss="10.81" rerouteNo="1" devices="tripinfo_veh1 routing_veh1 fcd_veh1" vType="veh_passenger" speedFactor="0.94" vaporized=""/>
    <tripinfo id="veh12" depart="32.00" departLane="137209465_0" departPos="0.20" departSpeed="0.00" departDelay="0.46" arrival="108.00" arrivalLane="8597107#3_0" arrivalPos="94.76" arrivalSpeed="8.28" duration="76.00" routeLength="566.97" waitingTime="0.00" waitingCount="0" stopTime="0.00" timeLoss="10.01" rerouteNo="1" devices="tripinfo_veh12 routing_veh12 fcd_veh12" vType="veh_passenger" speedFactor="1.05" vaporized=""/>
    <tripinfo id="veh13" depart="35.00" departLane="-8625131#1_0" departPos="5.10" departSpeed="0.00" departDelay="0.83" arrival="116.00" arrivalLane="1353874822_0" arrivalPos="0.20" arrivalSpeed="7.08" duration="81.00" routeLength="663.63" waitingTime="0.00" waitingCount="0" stopTime="0.00" timeLoss="9.35" rerouteNo="1" devices="tripinfo_veh13 routing_veh13 fcd_veh13" vType="veh_passenger" speedFactor="1.12" vaporized=""/>
    <tripinfo id="veh3" depart="8.00" departLane="-1294818343#1_0" departPos="5.10" departSpeed="0.00" departDelay="0.11" arrival="117.00" arrivalLane="-398190313#1_0" arrivalPos="79.55" arrivalSpeed="8.07" duration="109.00" routeLength="874.69" waitingTime="0.00" waitingCount="0" stopTime="0.00" timeLoss="10.80" rerouteNo="1" devices="tripinfo_veh3 routing_veh3 fcd_veh3" vType="veh_passenger" speedFactor="1.08" vaporized=""/>
    <tripinfo id="veh8" depart="22.00" departLane="-78140414#0_0" departPos="5.10" departSpeed="0.00" departDelay="0.97" arrival="123.00" arrivalLane="-16465958#1_0" arrivalPos="17.33" arrivalSpeed="7.23" duration="101.00" routeLength="701.55" waitingTime="0.00" waitingCount="0" stopTime="0.00" timeLoss="10.53" rerouteNo="1" devices="tripinfo_veh8 routing_veh8 fcd_veh8" vType="veh_passenger" speedFactor="0.94" vaporized=""/>
    <tripinfo id="veh27" depart="71.00" departLane="-398190313#7_0" departPos="0.20" departSpeed="0.00" departDelay="0.03" arrival="127.00" arrivalLane="-541359186#1_0" arrivalPos="40.03" arrivalSpeed="10.32" duration="56.00" routeLength="432.54" waitingTime="0.00" waitingCount="0" stopTime="0.00" timeLoss="7.24" rerouteNo="1" devices="tripinfo_veh27 routing_veh27 fcd_veh27" vType="veh_passenger" speedFactor="0.95" vaporized=""/>
    <tripinfo id="veh9" depart="24.00" departLane="8170204_0" departPos="5.10" departSpeed="0.00" departDelay="0.34" arrival="130.00" arrivalLane="-8875439_0" arrivalPos="54.54" arrivalSpeed="6.22" duration="106.00" routeLength="642.18" waitingTime="1.00" waitingCount="1" stopTime="0.00" timeLoss="15.66" rerouteNo="1" devices="tripinfo_veh9 routing_veh9 fcd_veh9" vType="veh_passenger" speedFactor="0.86" vaporized=""/>
    <tripinfo id="veh7" depart="19.00" departLane="674173236#0_0" departPos="5.10" departSpeed="0.00" departDelay="0.60" arrival="132.00" arrivalLane="16465959#2_0" arrivalPos="16.41" arrivalSpeed="6.49" duration="113.00" routeLength="804.41" waitingTime="0.00" waitingCount="0" stopTime="0.00" timeLoss="14.62" rerouteNo="1" devices="tripinfo_veh7 routing_veh7 fcd_veh7" vType="veh_passenger" speedFactor="0.89" vaporized=""/>
    <tripinfo id="veh20" depart="53.00" departLane="-8597107#2_0" departPos="5.10" departSpeed="0.00" departDelay="0.43" arrival="132.00" arrivalLane="-398190313#4_0" arrivalPos="0.20" arrivalSpeed="7.38" duration="79.00" routeLength="570.18" waitingTime="0.00" waitingCount="0" stopTime="0.00" timeLoss="10.12" rerouteNo="1" devices="tripinfo_veh20 routing_veh20 fcd_veh20" vType="veh_passenger" speedFactor="1.02" vaporized=""/>
    <tripinfo id="veh10" depart="27.00" departLane="-1294818350#0_0" departPos="5.10" departSpeed="0.00" departDelay="0.71" arrival="133.00" arrivalLane="-1309210016_0" arrivalPos="18.85" arrivalSpeed="8.71" duration="106.00" routeLength="731.35" waitingTime="12.00" waitingCount="1" stopTime="0.00" timeLoss="25.56" rerouteNo="1" devices="tripinfo_veh10 routing_veh10 fcd_veh10" vType="veh_passenger" speedFactor="1.09" vaporized=""/>
    <tripinfo id="veh24" depart="64.00" departLane="759535259_1" departPos="5.10" departSpeed="16.05" departDelay="0.91" arrival="133.00" arrivalLane="278787274#0_0" arrivalPos="24.35" arrivalSpeed="6.59" duration="69.00" routeLength="548.90" waitingTime="0.00" waitingCount="0" stopTime="0.00" timeLoss="7.20" rerouteNo="1" devices="tripinfo_veh24 routing_veh24 fcd_veh24" vType="veh_passenger" speedFactor="0.83" vaporized=""/>
    <tripinfo id="veh30" depart="79.00" departLane="93756990_0" departPos="5.10" departSpeed="0.00" departDelay="0.14" arrival="136.00" arrivalLane="1294818353_0" arrivalPos="14.16" arrivalSpeed="8.75" duration="57.00" routeLength="478.65" waitingTime="0.00" waitingCount="0" stopTime="0.00" timeLoss="8.54" rerouteNo="1" devices="tripinfo_veh30 routing_veh30 fcd_veh30" vType="veh_passenger" speedFactor="1.18" vaporized=""/>
    <tripinfo id="veh17" depart="45.00" departLane="-1294818348_0" departPos="5.10" departSpeed="0.00" departDelay="0.31" arrival="138.00" arrivalLane="-532086362_0" arrivalPos="21.08" arrivalSpeed="7.80" duration="93.00" routeLength="622.23" waitingTime="0.00" waitingCount="0" stopTime="0.00" timeLoss="12.61" rerouteNo="1" devices="tripinfo_veh17 routing_veh17 fcd_veh17" vType="veh_passenger" speedFactor="0.94" vaporized=""/>
    <tripinfo id="veh28" depart="74.00" departLane="14340731_0" departPos="5.10" departSpeed="0.00" departDelay="0.40" arrival="140.00" arrivalLane="6167202_0" arrivalPos="0.20" arrivalSpeed="9.11" duration="66.00" routeLength="566.66" waitingTime="0.00" waitingCount="0" stopTime="0.00" timeLoss="18.57" rerouteNo="1" devices="tripinfo_veh28 routing_veh28 fcd_veh28" vType="veh_passenger" speedFactor="1.13" vaporized=""/>
    <tripinfo id="veh6" depart="16.00" departLane="674173236#0_0" departPos="5.10" departSpeed="0.00" departDelay="0.23" arrival="141.00" arrivalLane="-1294818340#1_0" arrivalPos="64.39" arrivalSpeed="7.58" duration="125.00" routeLength="1032.75" waitingTime="0.00" waitingCount="0" stopTime="0.00" timeLoss="19.71" rerouteNo="1" devices="tripinfo_veh6 routing_veh6 fcd_veh6" vType="veh_passenger" speedFactor="1.05" vaporized=""/>
    <tripinfo id="veh31" depart="82.00" departLane="-1294818350#0_0" departPos="5.10" departSpeed="0.00" departDelay="0.51" arrival="147.00" arrivalLane="-1294818346#2_0" arrivalPos="11.90" arrivalSpeed="9.19" duration="65.00" routeLength="531.53" waitingTime="0.00" waitingCount="0" stopTime="0.00" timeLoss="8.75" rerouteNo="1" devices="tripinfo_veh31 routing_veh31 fcd_veh31" vType="veh_passenger" speedFactor="1.15" vaporized=""/>
    <tripinfo id="veh38" depart="100.00" departLane="78140414#0_0" departPos="5.10" departSpeed="0.00" departDelay="0.11" arrival="152.00" arrivalLane="-541361416_0" arrivalPos="16.77" arrivalSpeed="14.31" duration="52.00" routeLength="515.84" waitingTime="0.00" waitingCount="0" stopTime="0.00" timeLoss="9.98" rerouteNo="1" devices="tripinfo_veh38 routing_veh38 fcd_veh38" vType="veh_passenger" speedFactor="1.10" vaporized=""/>
    <tripinfo id="veh40" depart="106.00" departLane="-487101504_0" departPos="5.10" departSpeed="8.58" departDelay="0.85" arrival="156.00" arrivalLane="14340736_0" arrivalPos="13.11" arrivalSpeed="10.28" duration="50.00" routeLength="394.40" waitingTime="0.00" waitingCount="0" stopTime="0.00" timeLoss="4.51" rerouteNo="1" devices="tripinfo_veh40 routing_veh40 fcd_veh40" vType="veh_passenger" speedFactor="1.03" vaporized=""/>
    <tripinfo id="veh4" depart="11.00" departLane="16465959#2_0" departPos="5.10" departSpeed="0.00" departDelay="0.49" arrival="162.00" arrivalLane="1309692164#1_0" arrivalPos="15.79" arrivalSpeed="11.12" duration="151.00" routeLength="1089.50" waitingTime="11.00" waitingCount="1" stopTime="0.00" timeLoss="33.65" rerouteNo="1" devices="tripinfo_veh4 routing_veh4 fcd_veh4" vType="veh_passenger" speedFactor="1.03" vaporized=""/>
    <tripinfo id="veh21" depart="56.00" departLane="-398190313#7_0" departPos="0.20" departSpeed="0.00" departDelay="0.80" arrival="163.00" arrivalLane="8029078#1_0" arrivalPos="91.71" arrivalSpeed="7.12" duration="107.00" routeLength="813.31" waitingTime="0.00" waitingCount="0" stopTime="0.00" timeLoss="10.10" rerouteNo="1" devices="tripinfo_veh21 routing_veh21 fcd_veh21" vType="veh_passenger" speedFactor="1.01" vaporized=""/>
    <tripinfo id="veh51" depart="135.00" departLane="8076778_0" departPos="5.10" departSpeed="16.24" departDelay="0.94" arrival="167.00" arrivalLane="137191880_0" arrivalPos="20.55" arrivalSpeed="12.35" duration="32.00" routeLength="365.44" waitingTime="0.00" waitingCount="0" stopTime="0.00" timeLoss="4.49" rerouteNo="1" devices="tripinfo_veh51 routing_veh51 fcd_veh51" vType="veh_passenger" speedFactor="1.17" vaporized=""/>
    <tripinfo id="veh29" depart="77.00" departLane="1294818341_0" departPos="5.10" departSpeed="0.00" departDelay="0.77" arrival="172.00" arrivalLane="-398190313#8_0" arrivalPos="1.46" arrivalSpeed="7.41" duration="95.00" routeLength="644.28" waitingTime="0.00" waitingCount="0" stopTime="0.00" timeLoss="11.03" rerouteNo="1" devices="tripinfo_veh29 routing_veh29 fcd_veh29" vType="veh_passenger" speedFactor="0.93" vaporized=""/>
    <tripinfo id="veh33" depart="87.00" departLane="6167203_0" departPos="5.10" departSpeed="0.00" departDelay="0.25" arrival="174.00" arrivalLane="1294818342#3_0" arrivalPos="48.26" arrivalSpeed="9.56" duration="87.00" routeLength="720.04" waitingTime="0.00" waitingCount="0" stopTime="0.00" timeLoss="11.78" rerouteNo="1" devices="tripinfo_veh33 routing_veh33 fcd_veh33" vType="veh_passenger" speedFactor="1.17" vaporized=""/>
    <tripinfo id="veh26" depart="69.00" departLane="78140414#0_0" departPos="5.10" departSpeed="0.00" departDelay="0.65" arrival="179.00" arrivalLane="-8597107#0_0" arrivalPos="25.77" arrivalSpeed="6.14" duration="110.00" routeLength="715.30" waitingTime="0.00" waitingCount="0" stopTime="0.00" timeLoss="15.65" rerouteNo="1" devices="tripinfo_veh26 routing_veh26 fcd_veh26" vType="veh_passenger" speedFactor="0.92" vaporized=""/>
    <tripinfo id="veh19" depart="50.00" departLane="16465958#1_0" departPos="5.10" departSpeed="0.00" departDelay="0.05" arrival="181.00" arrivalLane="-9750333#1_0" arrivalPos="58.05" arrivalSpeed="15.62" duration="131.00" routeLength="1178.19" waitingTime="0.00" waitingCount="0" stopTime="0.00" timeLoss="21.32" rerouteNo="1" devices="tripinfo_veh19 routing_veh19 fcd_veh19" vType="veh_passenger" speedFactor="1.16" vaporized=""/>
    <tripinfo id="veh47" depart="125.00" departLane="137209468_0" departPos="0.20" departSpeed="0.00" departDelay="1.45" arrival="188.00" arrivalLane="201237460#1_0" arrivalPos="81.42" arrivalSpeed="16.96" duration="63.00" routeLength="531.83" waitingTime="1.00" waitingCount="1" stopTime="0.00" timeLoss="9.22" rerouteNo="1" devices="tripinfo_veh47 routing_veh47 fcd_veh47" vType="veh_passenger" speedFactor="0.90" vaporized=""/>
    <tripinfo id="veh32" depart="85.00" departLane="-1294818356#1_0" departPos="5.10" departSpeed="8.37" departDelay="0.88" arrival="189.00" arrivalLane="14340731_0" arrivalPos="7.96" arrivalSpeed="10.71" duration="104.00" routeLength="820.20" waitingTime="2.00" waitingCount="2" stopTime="0.00" timeLoss="18.87" rerouteNo="1" devices="tripinfo_veh32 routing_veh32 fcd_veh32" vType="veh_passenger" speedFactor="1.01" vaporized=""/>
    <tripinfo id="veh54" depart="142.00" departLane="759535259_0" departPos="5.10" departSpeed="19.50" departDelay="0.05" arrival="191.00" arrivalLane="-541359186#1_1" arrivalPos="40.03" arrivalSpeed="10.39" duration="49.00" routeLength="522.40" waitingTime="0.00" waitingCount="0" stopTime="0.00" timeLoss="8.22" rerouteNo="1" devices="tripinfo_veh54 routing_veh54 fcd_veh54" vType="veh_passenger" speedFactor="1.00" vaporized=""/>
    <tripinfo id="veh37" depart="98.00" departLane="-1294818356#1_0" departPos="5.10" departSpeed="9.83" departDelay="0.74" arrival="195.00" arrivalLane="1294818344_0" arrivalPos="71.41" arrivalSpeed="8.73" duration="97.00" routeLength="838.70" waitingTime="0.00" waitingCount="0" stopTime="0.00" timeLoss="11.01" rerouteNo="1" devices="tripinfo_veh37 routing_veh37 fcd_veh37" vType="veh_passenger" speedFactor="1.18" vaporized=""/>
    <tripinfo id="veh42" depart="111.00" departLane="-1294818342#3_0" departPos="5.10" departSpeed="0.00" departDelay="0.59" arrival="201.00" arrivalLane="78140414#0_0" arrivalPos="36.42" arrivalSpeed="8.47" duration="90.00" routeLength="713.91" waitingTime="0.00" waitingCount="0" stopTime="0.00" timeLoss="10.32" rerouteNo="1" devices="tripinfo_veh42 routing_veh42 fcd_veh42" vType="veh_passenger" speedFactor="1.09" vaporized=""/>
    <tripinfo id="veh25" depart="66.00" departLane="-278787274#1_0" departPos="5.10" departSpeed="0.00" departDelay="0.28" arrival="202.00" arrivalLane="-1294818344_0" arrivalPos="71.37" arrivalSpeed="6.57" duration="136.00" routeLength="868.84" waitingTime="0.00" waitingCount="0" stopTime="0.00" timeLoss="14.44" rerouteNo="1" devices="tripinfo_veh25 routing_veh25 fcd_veh25" vType="veh_passenger" speedFactor="0.87" vaporized=""/>
    <tripinfo id="veh39" depart="103.00" departLane="1309692164#1_0" departPos="5.10" departSpeed="0.00" departDelay="0.48" arrival="202.00" arrivalLane="-278787274#2_0" arrivalPos="59.41" arrivalSpeed="6.36" duration="99.00" routeLength="724.45" waitingTime="0.00" waitingCount="0" stopTime="0.00" timeLoss="12.90" rerouteNo="1" devices="tripinfo_veh39 routing_veh39 fcd_veh39" vType="veh_passenger" speedFactor="0.90" vaporized=""/>
    <tripinfo id="veh45" depart="119.00" departLane="-398190313#7_0" departPos="0.20" departSpeed="0.00" departDelay="0.71" arrival="203.00" arrivalLane="6140652_0" arrivalPos="75.84" arrivalSpeed="8.34" duration="84.00" routeLength="698.80" waitingTime="2.00" waitingCount="1" stopTime="0.00" timeLoss="18.69" rerouteNo="1" devices="tripinfo_veh45 routing_veh45 fcd_veh45" vType="veh_passenger" speedFactor="1.09" vaporized=""/>
    <tripinfo id="veh36" depart="95.00" departLane="278787274#3_0" departPos="5.10" departSpeed="0.00" departDelay="0.37" arrival="210.00" arrivalLane="1309692163_0" arrivalPos="58.73" arrivalSpeed="10.36" duration="115.00" routeLength="839.05" waitingTime="5.00" waitingCount="1" stopTime="0.00" timeLoss="21.83" rerouteNo="1" devices="tripinfo_veh36 routing_veh36 fcd_veh36" vType="veh_passenger" speedFactor="0.97" vaporized=""/>
    <tripinfo id="veh22" depart="58.00" departLane="-136473724_0" departPos="5.10" departSpeed="0.00" departDelay="0.17" arrival="216.00" arrivalLane="-9750333#1_0" arrivalPos="58.05" arrivalSpeed="12.52" duration="158.00" routeLength="1260.08" waitingTime="0.00" waitingCount="0" stopTime="0.00" timeLoss="16.51" rerouteNo="1" devices="tripinfo_veh22 routing_veh22 fcd_veh22" vType="veh_passenger" speedFactor="0.97" vaporized=""/>
    <tripinfo id="veh34" depart="90.00" departLane="8597107#2_0" departPos="5.10" departSpeed="0.00" departDelay="0.62" arrival="217.00" arrivalLane="541359186#1_0" arrivalPos="40.35" arrivalSpeed="9.99" duration="127.00" routeLength="1058.12" waitingTime="0.00" waitingCount="0" stopTime="0.00" timeLoss="14.13" rerouteNo="1" devices="tripinfo_veh34 routing_veh34 fcd_veh34" vType="veh_passenger" speedFactor="0.99" vaporized=""/>
    <tripinfo id="veh41" depart="108.00" departLane="541361416_0" departPos="5.10" departSpeed="13.29" departDelay="0.22" arrival="223.00" arrivalLane="1294818358#1_0" arrivalPos="77.30" arrivalSpeed="7.10" duration="115.00" routeLength="866.69" waitingTime="0.00" waitingCount="0" stopTime="0.00" timeLoss="15.10" rerouteNo="1" devices="tripinfo_veh41 routing_veh41 fcd_veh41" vType="veh_passenger" speedFactor="0.96" vaporized=""/>
    <tripinfo id="veh48" depart="127.00" departLane="-16465956#2_0" departPos="5.10" departSpeed="0.00" departDelay="0.82" arrival="227.00" arrivalLane="-8170204_0" arrivalPos="100.73" arrivalSpeed="6.35" duration="100.00" routeLength="601.63" waitingTime="4.00" waitingCount="1" stopTime="0.00" timeLoss="16.60" rerouteNo="1" devices="tripinfo_veh48 routing_veh48 fcd_veh48" vType="veh_passenger" speedFactor="0.88" vaporized=""/>
    <tripinfo id="veh16" depart="43.00" departLane="398190313#0_0" departPos="5.10" departSpeed="0.00" departDelay="0.94" arrival="229.00" arrivalLane="-1294818346#1_0" arrivalPos="48.29" arrivalSpeed="6.83" duration="186.00" routeLength="1051.93" waitingTime="19.00" waitingCount="1" stopTime="0.00" timeLoss="40.21" rerouteNo="1" devices="tripinfo_veh16 routing_veh16 fcd_veh16" vType="veh_passenger" speedFactor="0.88" vaporized=""/>
    <tripinfo id="veh65" depart="171.00" departLane="137209469_0" departPos="0.20" departSpeed="0.00" departDelay="0.13" arrival="232.00" arrivalLane="201237460#1_0" arrivalPos="81.42" arrivalSpeed="16.12" duration="61.00" routeLength="530.06" waitingTime="0.00" waitingCount="0" stopTime="0.00" timeLoss="7.09" rerouteNo="1" devices="tripinfo_veh65 routing_veh65 fcd_veh65" vType="veh_passenger" speedFactor="0.88" vaporized=""/>
    <tripinfo id="veh46" depart="121.00" departLane="1294818344_0" departPos="5.10" departSpeed="0.00" departDelay="0.08" arrival="240.00" arrivalLane="-398190313#5_0" arrivalPos="32.68" arrivalSpeed="7.47" duration="119.00" routeLength="852.08" waitingTime="1.00" waitingCount="1" stopTime="0.00" timeLoss="15.24" rerouteNo="1" devices="tripinfo_veh46 routing_veh46 fcd_veh46" vType="veh_passenger" speedFactor="1.00" vaporized=""/>
    <tripinfo id="veh76" depart="200.00" departLane="759535259_0" departPos="5.10" departSpeed="18.84" departDelay="0.22" arrival="240.00" arrivalLane="201237459_0" arrivalPos="29.58" arrivalSpeed="10.26" duration="40.00" routeLength="390.02" waitingTime="2.00" waitingCount="1" stopTime="0.00" timeLoss="13.86" rerouteNo="1" devices="tripinfo_veh76 routing_veh76 fcd_veh76" vType="veh_passenger" speedFactor="1.03" vaporized=""/>
    <tripinfo id="veh23" depart="61.00" departLane="137308922#1_0" departPos="5.10" departSpeed="0.00" departDelay="0.54" arrival="241.00" arrivalLane="16465958#1_0" arrivalPos="17.03" arrivalSpeed="7.21" duration="180.00" routeLength="1280.05" waitingTime="2.00" waitingCount="1" stopTime="0.00" timeLoss="27.28" rerouteNo="1" devices="tripinfo_veh23 routing_veh23 fcd_veh23" vType="veh_passenger" speedFactor="0.89" vaporized=""/>
    <tripinfo id="veh73" depart="193.00" departLane="-541359186#0_0" departPos="5.10" departSpeed="0.00" departDelay="1.10" arrival="241.00" arrivalLane="201237460#1_1" arrivalPos="81.42" arrivalSpeed="20.24" duration="48.00" routeLength="422.31" waitingTime="9.00" waitingCount="1" stopTime="0.00" timeLoss="22.41" rerouteNo="1" devices="tripinfo_veh73 routing_veh73 fcd_veh73" vType="veh_passenger" speedFactor="1.06" vaporized=""/>
    <tripinfo id="veh44" depart="116.00" departLane="541361416_0" departPos="5.10" departSpeed="14.49" departDelay="0.34" arrival="247.00" arrivalLane="-16465950#1_0" arrivalPos="55.82" arrivalSpeed="8.61" duration="131.00" routeLength="1046.87" waitingTime="0.00" waitingCount="0" stopTime="0.00" timeLoss="18.67" rerouteNo="1" devices="tripinfo_veh44 routing_veh44 fcd_veh44" vType="veh_passenger" speedFactor="1.04" vaporized=""/>
    <tripinfo id="veh63" depart="166.00" departLane="8170204_0" departPos="5.10" departSpeed="0.00" departDelay="0.39" arrival="248.00" arrivalLane="8875439_0" arrivalPos="54.54" arrivalSpeed="7.83" duration="82.00" routeLength="583.24" waitingTime="0.00" waitingCount="0" stopTime="0.00" timeLoss="9.92" rerouteNo="1" devices="tripinfo_veh63 routing_veh63 fcd_veh63" vType="veh_passenger" speedFactor="0.99" vaporized=""/>
    <tripinfo id="veh61" depart="161.00" departLane="1294818358#0_0" departPos="5.10" departSpeed="0.00" departDelay="0.65" arrival="249.00" arrivalLane="-398190313#5_0" arrivalPos="32.68" arrivalSpeed="8.95" duration="88.00" routeLength="687.95" waitingTime="0.00" waitingCount="0" stopTime="0.00" timeLoss="13.23" rerouteNo="1" devices="tripinfo_veh61 routing_veh61 fcd_veh61" vType="veh_passenger" speedFactor="1.12" vaporized=""/>
    <tripinfo id="veh43" depart="114.00" departLane="78140414#0_0" departPos="5.10" departSpeed="0.00" departDelay="0.97" arrival="251.00" arrivalLane="8029080#2_0" arrivalPos="26.75" arrivalSpeed="8.37" duration="137.00" routeLength="885.75" waitingTime="11.00" waitingCount="2" stopTime="0.00" timeLoss="33.23" rerouteNo="1" devices="tripinfo_veh43 routing_veh43 fcd_veh43" vType="veh_passenger" speedFactor="1.04" vaporized=""/>
    <tripinfo id="veh53" depart="143.00" departLane="398190313#8_0" departPos="1.46" departSpeed="0.00" departDelay="3.68" arrival="251.00" arrivalLane="16465956#1_0" arrivalPos="12.52" arrivalSpeed="7.85" duration="108.00" routeLength="718.46" waitingTime="3.00" waitingCount="1" stopTime="0.00" timeLoss="28.36" rerouteNo="1" devices="tripinfo_veh53 routing_veh53 fcd_veh53" vType="veh_passenger" speedFactor="1.10" vaporized=""/>
    <tripinfo id="veh74" depart="196.00" departLane="93756990_0" departPos="5.10" departSpeed="0.00" departDelay="1.48" arrival="254.00" arrivalLane="8875439_0" arrivalPos="54.54" arrivalSpeed="6.82" duration="58.00" routeLength="391.01" waitingTime="0.00" waitingCount="0" stopTime="0.00" timeLoss="7.84" rerouteNo="1" devices="tripinfo_veh74 routing_veh74 fcd_veh74" vType="veh_passenger" speedFactor="0.96" vaporized=""/>
    <tripinfo id="veh35" depart="92.00" departLane="-1294818342#0_0" departPos="5.10" departSpeed="0.00" departDelay="0.00" arrival="256.00" arrivalLane="201237460#1_0" arrivalPos="81.42" arrivalSpeed="19.57" duration="164.00" routeLength="1276.57" waitingTime="9.00" waitingCount="1" stopTime="0.00" timeLoss="28.94" rerouteNo="1" devices="tripinfo_veh35 routing_veh35 fcd_veh35" vType="veh_passenger" speedFactor="1.02" vaporized=""/>
    <tripinfo id="veh64" depart="169.00" departLane="8597107#1_0" departPos="5.10" departSpeed="0.00" departDelay="0.76" arrival="257.00" arrivalLane="137209465_0" arrivalPos="0.20" arrivalSpeed="4.53" duration="88.00" routeLength="525.76" waitingTime="4.00" waitingCount="2" stopTime="0.00" timeLoss="18.99" rerouteNo="1" devices="tripinfo_veh64 routing_veh64 fcd_veh64" vType="veh_passenger" speedFactor="0.94" vaporized=""/>
    <tripinfo id="veh49" depart="129.00" departLane="1294818346#2_0" departPos="5.10" departSpeed="0.00" departDelay="0.19" arrival="260.00" arrivalLane="1294818356#1_0" arrivalPos="11.57" arrivalSpeed="6.23" duration="131.00" routeLength="830.61" waitingTime="0.00" waitingCount="0" stopTime="0.00" timeLoss="13.52" rerouteNo="1" devices="tripinfo_veh49 routing_veh49 fcd_veh49" vType="veh_passenger" speedFactor="0.85" vaporized=""/>
    <tripinfo id="veh75" depart="201.00" departLane="78140414#1_0" departPos="5.10" departSpeed="0.00" departDelay="3.85" arrival="260.00" arrivalLane="6140652_0" arrivalPos="75.84" arrivalSpeed="7.02" duration="59.00" routeLength="522.83" waitingTime="0.00" waitingCount="0" stopTime="0.00" timeLoss="8.77" rerouteNo="1" devices="tripinfo_veh75 routing_veh75 fcd_veh75" vType="veh_passenger" speedFactor="0.98" vaporized=""/>
    <tripinfo id="veh57" depart="150.00" departLane="1294818348_0" departPos="5.10" departSpeed="0.00" departDelay="0.16" arrival="264.00" arrivalLane="541359186#1_0" arrivalPos="40.35" arrivalSpeed="11.82" duration="114.00" routeLength="1078.14" waitingTime="0.00" waitingCount="0" stopTime="0.00" timeLoss="14.36" rerouteNo="1" devices="tripinfo_veh57 routing_veh57 fcd_veh57" vType="veh_passenger" speedFactor="1.14" vaporized=""/>
    <tripinfo id="veh59" depart="156.00" departLane="8597107#2_0" departPos="5.10" departSpeed="0.00" departDelay="0.91" arrival="271.00" arrivalLane="674173236#1_0" arrivalPos="0.20" arrivalSpeed="15.34" duration="115.00" routeLength="918.68" waitingTime="0.00" waitingCount="0" stopTime="0.00" timeLoss="13.38" rerouteNo="1" devices="tripinfo_veh59 routing_veh59 fcd_veh59" vType="veh_passenger" speedFactor="0.97" vaporized=""/>
    <tripinfo id="veh69" depart="182.00" departLane="1294818343#1_0" departPos="5.10" departSpeed="0.00" departDelay="0.62" arrival="272.00" arrivalLane="137209468_0" arrivalPos="0.20" arrivalSpeed="3.90" duration="90.00" routeLength="643.47" waitingTime="1.00" waitingCount="1" stopTime="0.00" timeLoss="13.25" rerouteNo="1" devices="tripinfo_veh69 routing_veh69 fcd_veh69" vType="veh_passenger" speedFactor="1.02" vaporized=""/>
    <tripinfo id="veh62" depart="163.00" departLane="-8625131#1_0" departPos="5.10" departSpeed="0.00" departDelay="0.02" arrival="279.00" arrivalLane="8625233_0" arrivalPos="10.48" arrivalSpeed="7.38" duration="116.00" routeLength="935.00" waitingTime="0.00" waitingCount="0" stopTime="0.00" timeLoss="10.48" rerouteNo="1" devices="tripinfo_veh62 routing_veh62 fcd_veh62" vType="veh_passenger" speedFactor="1.02" vaporized=""/>
    <tripinfo id="veh71" depart="188.00" departLane="-278787274#4_0" departPos="3.78" departSpeed="0.00" departDelay="1.36" arrival="280.00" arrivalLane="-9750333#1_0" arrivalPos="58.05" arrivalSpeed="12.40" duration="92.00" routeLength="774.61" waitingTime="0.00" waitingCount="0" stopTime="0.00" timeLoss="12.20" rerouteNo="1" devices="tripinfo_veh71 routing_veh71 fcd_veh71" vType="veh_passenger" speedFactor="0.97" vaporized=""/>