<?xml version="1.0" encoding="UTF-8"?>

<!-- generated on 2025-11-08 15:20:44 by Eclipse SUMO sumo Version 1.24.0
<sumoConfiguration xmlns:xsi="http://www.w3.org/2001/XMLSchema-instance" xsi:noNamespaceSchemaLocation="http://sumo.dlr.de/xsd/sumoConfiguration.xsd">

    <input>
        <net-file value="/home/tharindu/Sumo/2025-11-08-15-20-30/osm.net.xml.gz"/>
        <route-files value="/home/tharindu/Sumo/2025-11-08-15-20-30/trips.trips.xml"/>
        <additional-files value="/home/tharindu/Sumo/2025-11-08-15-20-30/osm_stops.add.xml"/>
    </input>

    <output>
        <vehroute-output value="/home/tharindu/Sumo/2025-11-08-15-20-30/vehroutes.xml"/>
        <stop-output value="/home/tharindu/Sumo/2025-11-08-15-20-30/stopinfos.xml"/>
    </output>

    <time>
        <begin value="0.0"/>
    </time>

    <processing>
        <ignore-route-errors value="true"/>
        <time-to-teleport.disconnected value="0"/>
    </processing>

    <routing>
        <device.rerouting.adaptation-interval value="0"/>
    </routing>

    <report>
        <aggregate-warnings value="5"/>
        <error-log value="/home/tharindu/Sumo/2025-11-08-15-20-30/trips.trips.xml.errorlog"/>
        <no-step-log value="true"/>
    </report>

</sumoConfiguration>
-->

<routes xmlns:xsi="http://www.w3.org/2001/XMLSchema-instance" xsi:noNamespaceSchemaLocation="http://sumo.dlr.de/xsd/routes_file.xsd">
</routes>
